************************************************************
This is node13.cluster of cluster Pinconning.
Date: Thu Oct 15 01:13:34 PDT 2020
************************************************************
 Set GAUSS_MDEF to "32GB".
 Set GAUSS_PDEF to "12".
 Entering Gaussian System, Link 0=gdv
 Initial command:
 /opt/gaussian/gdv-20180628-i14+/gdv/l1.exe "/tmp/729868.1.allnodes.q/Gau-468.inp" -scrdir="/tmp/729868.1.allnodes.q/"
 Default is to use a total of  12 processors:
                               12 via shared-memory
                                1 via Linda
 Entering Link 1 = /opt/gaussian/gdv-20180628-i14+/gdv/l1.exe PID=       469.
  
 Copyright (c) 1988-2018, Gaussian, Inc.  All Rights Reserved.
  
 This is the private, development version of
 the Gaussian(R) DV system of programs. It is based on
 the Gaussian(R) 16 system (copyright 2016, Gaussian, Inc.),
 the Gaussian(R) 09 system (copyright 2009, Gaussian, Inc.),
 the Gaussian(R) 03 system (copyright 2003, Gaussian, Inc.),
 the Gaussian(R) 98 system (copyright 1998, Gaussian, Inc.),
 the Gaussian(R) 94 system (copyright 1995, Gaussian, Inc.),
 the Gaussian 92(TM) system (copyright 1992, Gaussian, Inc.),
 the Gaussian 90(TM) system (copyright 1990, Gaussian, Inc.),
 the Gaussian 88(TM) system (copyright 1988, Gaussian, Inc.),
 the Gaussian 86(TM) system (copyright 1986, Carnegie Mellon
 University), and the Gaussian 82(TM) system (copyright 1983,
 Carnegie Mellon University). Gaussian is a federally registered
 trademark of Gaussian, Inc.
  
 This software contains proprietary and confidential information,
 including trade secrets, belonging to Gaussian, Inc.
  
 This software is provided under written license and may be
 used, copied, transmitted, or stored only in accord with that
 written license.
  
 The following legend is applicable only to US Government
 contracts under FAR:
  
                    RESTRICTED RIGHTS LEGEND
  
 Use, reproduction and disclosure by the US Government is
 subject to restrictions as set forth in subparagraphs (a)
 and (c) of the Commercial Computer Software - Restricted
 Rights clause in FAR 52.227-19.
  
 Gaussian, Inc.
 340 Quinnipiac St., Bldg. 40, Wallingford CT 06492
  
  
 ---------------------------------------------------------------
 Warning -- This program may not be used in any manner that
 competes with the business of Gaussian, Inc. or will provide
 assistance to any competitor of Gaussian, Inc.  The licensee
 of this program is prohibited from giving any competitor of
 Gaussian, Inc. access to this program.  By using this program,
 the user acknowledges that Gaussian, Inc. is engaged in the
 business of creating and licensing software in the field of
 computational chemistry and represents and warrants to the
 licensee that it is not a competitor of Gaussian, Inc. and that
 it will not use this program in any manner prohibited above.
 ---------------------------------------------------------------
  

 Cite this work as:
 Gaussian Development Version, Revision I.14+,
 M. J. Frisch, G. W. Trucks, H. B. Schlegel, G. E. Scuseria, 
 M. A. Robb, J. R. Cheeseman, G. Scalmani, V. Barone, 
 G. A. Petersson, H. Nakatsuji, X. Li, M. Caricato, A. V. Marenich, 
 J. Bloino, B. G. Janesko, R. Gomperts, B. Mennucci, H. P. Hratchian, 
 J. V. Ortiz, A. F. Izmaylov, J. L. Sonnenberg, D. Williams-Young, 
 F. Ding, F. Lipparini, F. Egidi, J. Goings, B. Peng, A. Petrone, 
 T. Henderson, D. Ranasinghe, V. G. Zakrzewski, J. Gao, N. Rega, 
 G. Zheng, W. Liang, M. Hada, M. Ehara, K. Toyota, R. Fukuda, 
 J. Hasegawa, M. Ishida, T. Nakajima, Y. Honda, O. Kitao, H. Nakai, 
 T. Vreven, K. Throssell, J. A. Montgomery, Jr., J. E. Peralta, 
 F. Ogliaro, M. J. Bearpark, J. J. Heyd, E. N. Brothers, K. N. Kudin, 
 V. N. Staroverov, T. A. Keith, R. Kobayashi, J. Normand, 
 K. Raghavachari, A. P. Rendell, J. C. Burant, S. S. Iyengar, 
 J. Tomasi, M. Cossi, J. M. Millam, M. Klene, C. Adamo, R. Cammi, 
 J. W. Ochterski, R. L. Martin, K. Morokuma, O. Farkas, 
 J. B. Foresman, and D. J. Fox, Gaussian, Inc., Wallingford CT, 2018.
 
 *******************************************
 Gaussian DV:  ES64L-GDVRevI.14+ 23-Jun-2018
                 15-Oct-2020 
 *******************************************
 %chk=casscf22_s2_h2_sto-3g.chk
 %subst l510 /home/kranka/proj_isborn/gdv_links_KR/gdvi14+/l510
 ----------------------------------------------------------------------
 #P CASSCF(2,2,fulldiag,NRoot=4,SaveGEDensities)/sto-3g scf(tight,maxcy
 c=100) nosymm scf(tight,maxcyc=1500,conventional) iop(3/33=6) extralin
 ks(l316,l308) noraff symm=noint iop(3/33=3) pop(full) iop(6/8=1,3/33=3
 ,3/36=1,4/33=3,5/33=3,6/33=3,9/33=3,5/72=-3)
 ----------------------------------------------------------------------
 1/38=1,172=1/1;
 2/12=2,15=1,17=6,18=5,40=1/2;
 3/6=3,25=20,28=1,33=3,36=1,116=101/1,2,3,20,16,8;
 4/17=2,18=2,21=10,33=3,43=1/1,5;
 5/5=1,7=1500,17=1000000,28=4,29=1,32=4,33=3,72=-3/10;
 6/7=3,8=1,28=1,33=3/1;
 99/5=1,9=1/99;
 Leave Link    1 at Thu Oct 15 01:13:34 2020, MaxMem=           0 cpu:               0.9 elap:               0.1
 (Enter /opt/gaussian/gdv-20180628-i14+/gdv/l101.exe)
 ----------------------------------------------------------------------
 CAS(2,2)SCF/STO-3G, S2 state single point, pert. calc. (all density ma
 trices printed)
 ----------------------------------------------------------------------
 Symbolic Z-matrix:
 Charge =  0 Multiplicity = 1
 H                     0.        0.       -0.37 
 H                     0.        0.        0.37 
 
 ITRead=  0  0
 MicOpt= -1 -1
 NAtoms=      2 NQM=        2 NQMF=       0 NMMI=      0 NMMIF=      0
                NMic=       0 NMicF=      0.
                    Isotopes and Nuclear Properties:
 (Nuclear quadrupole moments (NQMom) in fm**2, nuclear magnetic moments (NMagM)
  in nuclear magnetons)

  Atom         1           2
 IAtWgt=           1           1
 AtmWgt=   1.0078250   1.0078250
 NucSpn=           1           1
 AtZEff=  -0.0000000  -0.0000000
 NQMom=    0.0000000   0.0000000
 NMagM=    2.7928460   2.7928460
 AtZNuc=   1.0000000   1.0000000
 Leave Link  101 at Thu Oct 15 01:13:34 2020, MaxMem=  4294967296 cpu:               1.4 elap:               0.2
 (Enter /opt/gaussian/gdv-20180628-i14+/gdv/l202.exe)
                          Input orientation:                          
 ---------------------------------------------------------------------
 Center     Atomic      Atomic             Coordinates (Angstroms)
 Number     Number       Type             X           Y           Z
 ---------------------------------------------------------------------
      1          1           0        0.000000    0.000000   -0.370000
      2          1           0        0.000000    0.000000    0.370000
 ---------------------------------------------------------------------
 Symmetry turned off by external request.
 Stoichiometry    H2
 Framework group  D*H[C*(H.H)]
 Deg. of freedom     1
 Full point group                 D*H     NOp   8
 Rotational constants (GHZ):           0.0000000        1831.4649542        1831.4649542
 Leave Link  202 at Thu Oct 15 01:13:34 2020, MaxMem=  4294967296 cpu:               0.1 elap:               0.0
 (Enter /opt/gaussian/gdv-20180628-i14+/gdv/l301.exe)
 Standard basis: STO-3G (5D, 7F)
                         Coordinates in L301:                         
 ---------------------------------------------------------------------
 Center     Atomic      Atomic             Coordinates (Angstroms)
 Number     Number       Type             X           Y           Z
 ---------------------------------------------------------------------
      1          1           0        0.000000    0.000000   -0.370000
      2          1           0        0.000000    0.000000    0.370000
 ---------------------------------------------------------------------
 FixB: optimizing general contractions.
 Ernie: Thresh=  0.10000D-02 Tol=  0.10000D-05 Strict=F.
 IA=     1 ShT= 0 ShC= 0 NL=   1 NS=   0.
         I=   1 JX=   3 NP=   0
 IA=     1 L=0 SC=0 ISt=    0 NBk=    0 NP=    0 IndPr=    0.
 IA=     2 ShT= 0 ShC= 0 NL=   1 NS=   0.
         I=   1 JX=   3 NP=   0
 IA=     2 L=0 SC=0 ISt=    0 NBk=    0 NP=    0 IndPr=    0.
 Electric field displacement of shell     1 is  0.00D+00
 Electric field displacement of shell     2 is  0.00D+00
 LdAtmC:  AtmChg=     1.000000     1.000000
 AtZEff=     -1.0000000     -1.0000000
     2 basis functions,     6 primitive gaussians,     2 cartesian basis functions
     1 alpha electrons        1 beta electrons
       nuclear repulsion energy         0.7151043391 Hartrees.
 IS=     1 IAt=     1 ISR=     1 T=0 IP=      1 IndIP=      1 IndIPD=      0 C=  2.769344D-01  0.000000D+00                             NZ=T
 IS=     1 IAt=     1 ISR=     1 T=0 IP=      2 IndIP=      2 IndIPD=      1 C=  2.678389D-01  0.000000D+00                             NZ=T
 IS=     1 IAt=     1 ISR=     1 T=0 IP=      3 IndIP=      3 IndIPD=      2 C=  8.347367D-02  0.000000D+00                             NZ=T
 IS=     2 IAt=     2 ISR=     1 T=0 IP=      1 IndIP=      4 IndIPD=      0 C=  2.769344D-01  0.000000D+00                             NZ=T
 IS=     2 IAt=     2 ISR=     1 T=0 IP=      2 IndIP=      5 IndIPD=      1 C=  2.678389D-01  0.000000D+00                             NZ=T
 IS=     2 IAt=     2 ISR=     1 T=0 IP=      3 IndIP=      6 IndIPD=      2 C=  8.347367D-02  0.000000D+00                             NZ=T
 IExCor=    0 DFT=F Ex=HF Corr=None ExCW=0 ScaHFX=  1.000000
 ScaDFX=  1.000000  1.000000  1.000000  1.000000
 IRadAn=      5 IRanWt=     -1 IRanGd=            0 ICorTp=0 IEmpDi=  4
 NAtoms=    2 NActive=    2 NUniq=    2 SFac= 1.00D+00 NAtFMM=   60 NAOKFM=F Big=F
 Integral buffers will be    131072 words long.
 Regular integral format.
 Two-electron integral symmetry is turned off.
 Pair potential:
 Leave Link  301 at Thu Oct 15 01:13:34 2020, MaxMem=  4294967296 cpu:               0.7 elap:               0.1
 (Enter /opt/gaussian/gdv-20180628-i14+/gdv/l302.exe)
 GetPMM: IRwPM=  824 LRwPM=    0 LPMAll=    2
 GetPCM: File not found, return IValue=0.
 NPDir=0 NMtPBC=     1 NCelOv=     1 NCel=       1 NClECP=     1 NCelD=      1
         NCelK=      1 NCelE2=     1 NClLst=     1 CellRange=     0.0.
 One-electron integrals computed using PRISM.
 Entering OneElI...
 OneElI was handed  4294967253 working-precision words.
 Calculate overlap and kinetic energy integrals
    NBasis =   2  MinDer = 0  MaxDer = 0
 Requested accuracy = 0.1000D-12
 ShPair: Thresh= 1.00D-13 NBox=     0 BxSize= 0.00D+00 RnKept= 1.40D+00
         NSMCal=                    3 NSMKep=                   3
 PrmmSu-InSpLW:  IPartL=    0 NPrtUS=   12 NPrtUL=    1 DoSpLW=F IThBeg=    0 IThEnd=   11 NThAct=   12.
 PrSmSu:  IncTry=   512 NBBP=              3 NTPThr=   100 NPartT=   12 Incr=           1 LDynOK=F GPUOK=F.
 PrsmSu:  NPrtUS=  12 ThrOK=T IAlg=1 LenDen=           0 ISkipM=0 DoSpLW=F IThBeg=    0 IThEnd=   11.
 Prism:   IPart=     0 DynPar=F LinDyn=F Incr=           1.
 PRISM was handed   357913132 working-precision words and     3 shell-pairs
 PRISM was handed   357913132 working-precision words and     3 shell-pairs
 PRISM was handed   357913132 working-precision words and     3 shell-pairs
 PRISM was handed   357913132 working-precision words and     3 shell-pairs
 PRISM was handed   357913132 working-precision words and     3 shell-pairs
 PRISM was handed   357913132 working-precision words and     3 shell-pairs
 PRISM was handed   357913132 working-precision words and     3 shell-pairs
 PRISM was handed   357913132 working-precision words and     3 shell-pairs
 PRISM was handed   357913132 working-precision words and     3 shell-pairs
 PRISM was handed   357913132 working-precision words and     3 shell-pairs
 PRISM was handed   357913132 working-precision words and     3 shell-pairs
 PRISM was handed   357913132 working-precision words and     3 shell-pairs
 IPart=  4 NShTot=           0 NBatch=           0 AvBLen=         0.0
 IPart=  8 NShTot=           0 NBatch=           0 AvBLen=         0.0
 PrsmSu-ThDecC:  IPartSL=    4    0 NPrtUSL=   12    1 IThBeg=    0 IThEnd=   11 CPU=   -1 GPU=   -1 NThAct=   12.
 IPart= 11 NShTot=           0 NBatch=           0 AvBLen=         0.0
 IPart=  7 NShTot=           0 NBatch=           0 AvBLen=         0.0
 IPart= 10 NShTot=           0 NBatch=           0 AvBLen=         0.0
 PrsmSu-ThDecC:  IPartSL=    8    0 NPrtUSL=   12    1 IThBeg=    0 IThEnd=   11 CPU=   -1 GPU=   -1 NThAct=   11.
 PrsmSu-ThDecC:  IPartSL=   11    0 NPrtUSL=   12    1 IThBeg=    0 IThEnd=   11 CPU=   -1 GPU=   -1 NThAct=   10.
 PrsmSu-ThDecC:  IPartSL=   10    0 NPrtUSL=   12    1 IThBeg=    0 IThEnd=   11 CPU=   -1 GPU=   -1 NThAct=    9.
 PrsmSu-ThDecC:  IPartSL=    7    0 NPrtUSL=   12    1 IThBeg=    0 IThEnd=   11 CPU=   -1 GPU=   -1 NThAct=    8.
 IPart=  0 NShTot=           1 NBatch=           1 AvBLen=         1.0
 IPart=  1 NShTot=           1 NBatch=           1 AvBLen=         1.0
 PrsmSu-ThDecC:  IPartSL=    0    0 NPrtUSL=   12    1 IThBeg=    0 IThEnd=   11 CPU=   -1 GPU=   -1 NThAct=    7.
 PrsmSu-ThDecC:  IPartSL=    1    0 NPrtUSL=   12    1 IThBeg=    0 IThEnd=   11 CPU=   -1 GPU=   -1 NThAct=    6.
 IPart=  5 NShTot=           0 NBatch=           0 AvBLen=         0.0
 PrsmSu-ThDecC:  IPartSL=    5    0 NPrtUSL=   12    1 IThBeg=    0 IThEnd=   11 CPU=   -1 GPU=   -1 NThAct=    5.
 IPart=  9 NShTot=           0 NBatch=           0 AvBLen=         0.0
 PrsmSu-ThDecC:  IPartSL=    9    0 NPrtUSL=   12    1 IThBeg=    0 IThEnd=   11 CPU=   -1 GPU=   -1 NThAct=    4.
 IPart=  3 NShTot=           0 NBatch=           0 AvBLen=         0.0
 PrsmSu-ThDecC:  IPartSL=    3    0 NPrtUSL=   12    1 IThBeg=    0 IThEnd=   11 CPU=   -1 GPU=   -1 NThAct=    3.
 IPart=  2 NShTot=           1 NBatch=           1 AvBLen=         1.0
 PrsmSu-ThDecC:  IPartSL=    2    0 NPrtUSL=   12    1 IThBeg=    0 IThEnd=   11 CPU=   -1 GPU=   -1 NThAct=    2.
 IPart=  6 NShTot=           0 NBatch=           0 AvBLen=         0.0
 PrsmSu-ThDecC:  IPartSL=    6    0 NPrtUSL=   12    1 IThBeg=    0 IThEnd=   11 CPU=   -1 GPU=   -1 NThAct=    1.
 PrSmSu:  NxtVal=             13.
 *** Overlap *** 
                1             2 
      1  0.100000D+01
      2  0.659873D+00  0.100000D+01
 *** Kinetic Energy *** 
                1             2 
      1  0.760032D+00
      2  0.236960D+00  0.760032D+00
 Entering OneElI...
 OneElI was handed  4294967253 working-precision words.
 Calculate potential energy integrals
    NBasis =   2  MinDer = 0  MaxDer = 0
 Requested accuracy = 0.1000D-12
 ShPair: Thresh= 1.00D-13 NBox=     0 BxSize= 0.00D+00 RnKept= 1.40D+00
         NSMCal=                    3 NSMKep=                   3
 PrmmSu-InSpLW:  IPartL=    0 NPrtUS=   12 NPrtUL=    1 DoSpLW=F IThBeg=    0 IThEnd=   11 NThAct=   12.
 PrSmSu:  IncTry=   512 NBBP=              6 NTPThr=   100 NPartT=   12 Incr=           1 LDynOK=F GPUOK=F.
 PrsmSu:  NPrtUS=  12 ThrOK=T IAlg=1 LenDen=           0 ISkipM=0 DoSpLW=F IThBeg=    0 IThEnd=   11.
 Prism:   IPart=     0 DynPar=F LinDyn=F Incr=           1.
 PRISM was handed   357913121 working-precision words and     3 shell-pairs
 PRISM was handed   357913121 working-precision words and     3 shell-pairs
 PRISM was handed   357913121 working-precision words and     3 shell-pairs
 PRISM was handed   357913121 working-precision words and     3 shell-pairs
 PRISM was handed   357913121 working-precision words and     3 shell-pairs
 PRISM was handed   357913121 working-precision words and     3 shell-pairs
 PRISM was handed   357913121 working-precision words and     3 shell-pairs
 PRISM was handed   357913121 working-precision words and     3 shell-pairs
 PRISM was handed   357913121 working-precision words and     3 shell-pairs
 PRISM was handed   357913121 working-precision words and     3 shell-pairs
 IPart=  4 NShTot=           0 NBatch=           0 AvBLen=         0.0
 PrsmSu-ThDecC:  IPartSL=    4    0 NPrtUSL=   12    1 IThBeg=    0 IThEnd=   11 CPU=   -1 GPU=   -1 NThAct=   12.
 PRISM was handed   357913121 working-precision words and     3 shell-pairs
 IPart=  7 NShTot=           0 NBatch=           0 AvBLen=         0.0
 PrsmSu-ThDecC:  IPartSL=    7    0 NPrtUSL=   12    1 IThBeg=    0 IThEnd=   11 CPU=   -1 GPU=   -1 NThAct=   11.
 IPart=  6 NShTot=           0 NBatch=           0 AvBLen=         0.0
 PrsmSu-ThDecC:  IPartSL=    6    0 NPrtUSL=   12    1 IThBeg=    0 IThEnd=   11 CPU=   -1 GPU=   -1 NThAct=   10.
 PRISM was handed   357913121 working-precision words and     3 shell-pairs
 IPart= 10 NShTot=           0 NBatch=           0 AvBLen=         0.0
 PrsmSu-ThDecC:  IPartSL=   10    0 NPrtUSL=   12    1 IThBeg=    0 IThEnd=   11 CPU=   -1 GPU=   -1 NThAct=    9.
 IPart=  8 NShTot=           0 NBatch=           0 AvBLen=         0.0
 PrsmSu-ThDecC:  IPartSL=    8    0 NPrtUSL=   12    1 IThBeg=    0 IThEnd=   11 CPU=   -1 GPU=   -1 NThAct=    8.
 IPart=  5 NShTot=           0 NBatch=           0 AvBLen=         0.0
 PrsmSu-ThDecC:  IPartSL=    5    0 NPrtUSL=   12    1 IThBeg=    0 IThEnd=   11 CPU=   -1 GPU=   -1 NThAct=    7.
 IPart= 11 NShTot=           0 NBatch=           0 AvBLen=         0.0
 PrsmSu-ThDecC:  IPartSL=   11    0 NPrtUSL=   12    1 IThBeg=    0 IThEnd=   11 CPU=   -1 GPU=   -1 NThAct=    6.
 IPart=  0 NShTot=           2 NBatch=           1 AvBLen=         2.0
 PrsmSu-ThDecC:  IPartSL=    0    0 NPrtUSL=   12    1 IThBeg=    0 IThEnd=   11 CPU=   -1 GPU=   -1 NThAct=    5.
 IPart=  1 NShTot=           2 NBatch=           1 AvBLen=         2.0
 PrsmSu-ThDecC:  IPartSL=    1    0 NPrtUSL=   12    1 IThBeg=    0 IThEnd=   11 CPU=   -1 GPU=   -1 NThAct=    4.
 IPart=  9 NShTot=           0 NBatch=           0 AvBLen=         0.0
 PrsmSu-ThDecC:  IPartSL=    9    0 NPrtUSL=   12    1 IThBeg=    0 IThEnd=   11 CPU=   -1 GPU=   -1 NThAct=    3.
 IPart=  3 NShTot=           0 NBatch=           0 AvBLen=         0.0
 PrsmSu-ThDecC:  IPartSL=    3    0 NPrtUSL=   12    1 IThBeg=    0 IThEnd=   11 CPU=   -1 GPU=   -1 NThAct=    2.
 IPart=  2 NShTot=           2 NBatch=           1 AvBLen=         2.0
 PrsmSu-ThDecC:  IPartSL=    2    0 NPrtUSL=   12    1 IThBeg=    0 IThEnd=   11 CPU=   -1 GPU=   -1 NThAct=    1.
 PrSmSu:  NxtVal=             13.
 ***** Potential Energy ***** 
                1             2 
      1  0.188099D+01
      2  0.119634D+01  0.188099D+01
 ****** Core Hamiltonian ****** 
                1             2 
      1 -0.112096D+01
      2 -0.959376D+00 -0.112096D+01
 SSO for IR=          1
                 1             2 
      1   0.100000D+01  0.659873D+00
      2   0.659873D+00  0.100000D+01
 SVDSVc IOpt=   1 NormSV=T IR=1
 SVDSVc V= 1.66D+00 3.40D-01
 V for IR=          1
                 1             2 
      1   0.707107D+00  0.707107D+00
      2   0.707107D+00 -0.707107D+00
 Vt*S*V: 
                1             2 
      1  0.100000D+01
      2  0.000000D+00  0.100000D+01
 TstOVc:  Largest diagonal error= 2.22D-16 IB=1 I=    2.
 TstOVc:  Largest same sym error= 1.39D-16 IB=1 I=    2 J=    1.
 Orthogonalized basis functions: 
                 1             2 
      1   0.548842D+00  0.121245D+01
      2   0.548842D+00 -0.121245D+01
 NBasis=     2 RedAO= T EigKep=  3.40D-01  NBF=     2
 NBsUse=     2 1.00D-06 EigRej= -1.00D+00 NBFU=     2
 Leave Link  302 at Thu Oct 15 01:13:34 2020, MaxMem=  4294967296 cpu:               1.7 elap:               0.2
 (Enter /opt/gaussian/gdv-20180628-i14+/gdv/l303.exe)
 GetPCM: File not found, return IValue=0.
 DipDrv:  MaxL=1.
 MemDpI: Int=      800000 Cav=           0 CFW=           0 Tot=      800000
 DipPsm:  J= 1 NJ= 4 MaxL=1 MMat= 4 MaxMat= 4.
 DipInt: DoE/N= T F RetVal/Mat= F T Init=T NMatP=  4 IDeriv=0 Min/MaxMlt=  0  1
 Entering OneElI...
 OneElI was handed  4294967283 working-precision words.
 Multipole integrals L=0 to 1 MinM= 0 MaxM= 3.
 Requested accuracy = 0.1000D-12
 ShPair: Thresh= 1.00D-13 NBox=     0 BxSize= 0.00D+00 RnKept= 1.40D+00
         NSMCal=                    3 NSMKep=                   3
 PrmmSu-InSpLW:  IPartL=    0 NPrtUS=    1 NPrtUL=    1 DoSpLW=F IThBeg=    0 IThEnd=    0 NThAct=    1.
 PrSmSu:  IncTry=   512 NBBP=              3 NTPThr=   100 NPartT=    1 Incr=           1 LDynOK=F GPUOK=F.
 PrsmSu:  NPrtUS=   1 ThrOK=F IAlg=2 LenDen=           0 ISkipM=0 DoSpLW=F IThBeg=    0 IThEnd=    0.
 Prism:   IPart=     0 DynPar=F LinDyn=F Incr=           1.
 PRISM was handed  4294966144 working-precision words and     3 shell-pairs
 IPart=  0 NShTot=           3 NBatch=           1 AvBLen=         3.0
 PrsmSu-ThDecC:  IPartSL=    0    0 NPrtUSL=    1    1 IThBeg=    0 IThEnd=    0 CPU=   -1 GPU=   -1 NThAct=    1.
 PrSmSu:  NxtVal=              2.
 Multipole matrices IBuc=  518 IX=    1 IJ=           1:
                1             2 
      1  0.000000D+00
      2  0.000000D+00  0.000000D+00
 Multipole matrices IBuc=  518 IX=    2 IJ=           1:
                1             2 
      1  0.000000D+00
      2  0.000000D+00  0.000000D+00
 Multipole matrices IBuc=  518 IX=    3 IJ=           1:
                1             2 
      1 -0.699199D+00
      2  0.000000D+00  0.699199D+00
 ReDoC1: IPurDI=1 IPurFI=1 IPurDO=0 IPurFO=0.
 Fermi contact integrals: 
                 1             2 
      1   0.628247D+00  0.139409D+00
      2   0.139409D+00  0.628247D+00
 Leave Link  303 at Thu Oct 15 01:13:34 2020, MaxMem=  4294967296 cpu:               0.3 elap:               0.0
 (Enter /opt/gaussian/gdv-20180628-i14+/gdv/l320.exe)
 GetPMM: IRwPM=  824 LRwPM=    0 LPMAll=    2
 Enter DskPsm, NBasis=   2 NBas6D=   2 NShell=   2 IDoSP=4.
 Out2e will use a cutoff of  1.00D-10
 FoFCou: FMM=F IPFlag=           0 FMFlag=           0 FMFlg1=           0
         NFxFlg=           0 DoJE=F BraDBF=F KetDBF=F FulRan=T
         wScrn=  0.000000 ICntrl=       600 IOpCl=  9 I1Cent=           0 NGrid=           0
         NMat0=    0 NMatS0=      0 NMatT0=    0 NMatD0=    0 NMtDS0=    0 NMtDT0=    0
 Symmetry not used in FoFCou.
 FoFCou:  KetSym=F NOpSet=  1 NOpAb=1 NOp=  1.
 FoFCou:  CnvScl= 1.00D+00 Thresh= 1.00D-13 IAcrcy=      10.
 IniFok:  ToCart=T IDoP0=0 DoConv=F DoRafP=T DoAdj=T
 ShPair: Thresh= 1.00D-13 NBox=     0 BxSize= 0.00D+00 RnKept= 1.40D+00
         NSMCal=                    3 NSMKep=                   3
 PrismS was handed  4294704271 working-precision words and     3 shell-pairs
 FoFCou: LinMIO=F DoNuc=F BraDBF=F KetDBF=F HaveP=F PDBF=F HaveZ=F HaveW=F
         NIJTC =       1 NIJTAt=       0 NIJTCD=       0 NIJTT =       1
         IJTBeg=       1 IJTEnd=       1 KLTBeg=       1 KLTEnd=       1
         IPTBeg=       1 IPTEnd=       1 IPTBCv=       1 IPTECv=       1
         IZTBeg=       1 IZTEnd=       1 IZTBCv=       1 IZTECv=       1
         IWTBeg=       2 IWTEnd=       1 IWTBCv=       2 IWTECv=       1
         INTBeg=       1 INTEnd=       0 IFTBCv=       1 IFTECv=       1
 NCel replicated for PrismC:     1
 CoulSu-InSpLW:  IPartL=    0 NPrtUS=   12 NPrtUL=    1 DoSpLW=F IThBeg=    0 IThEnd=   11 NThAct=   12.
 CoulSu:  IncTry=  1024 NBBP=              6 NTPThr=   100 NPartT=   12 Incr=           1 LDynOK=F GPUOK=F.
 CoulSu:  NPrtUS=  12 ThrOK=T IAlg=2 LenDen=           0 LWGrdD=           0 DoCopy=F ISkipM=0
          DoSpLW=F IThBeg=    0 IThEnd=   11.
 CoulSu:  IPart=    0 IPartR=    0 CPU=   -1 GPU=   -1.
 Enter PrismC:  IPart=  0 JobTyp=20 DoJE=F Cont=F.
 CoulSu:  IPart=    4 IPartR=    4 CPU=   -1 GPU=   -1.
 CoulSu:  IPart=    8 IPartR=    8 CPU=   -1 GPU=   -1.
 CoulSu:  IPart=    6 IPartR=    6 CPU=   -1 GPU=   -1.
 PrismC:  IPart=     0 DynPar=F LinDyn=F Incr=           1 UseFst=F UseS4=T ISplat=1.
 CoulSu:  IPart=    3 IPartR=    3 CPU=   -1 GPU=   -1.
 PrismC was handed   357891321 working-precision words and     3 shell-pairs
 Enter PrismC:  IPart=  4 JobTyp=20 DoJE=F Cont=F.
 CoulSu:  IPart=   10 IPartR=   10 CPU=   -1 GPU=   -1.
 PrismC:  IPart=     4 DynPar=F LinDyn=F Incr=           1 UseFst=F UseS4=T ISplat=1.
 CoulSu:  IPart=    7 IPartR=    7 CPU=   -1 GPU=   -1.
 CoulSu:  IPart=    5 IPartR=    5 CPU=   -1 GPU=   -1.
 PrismC was handed   357891321 working-precision words and     3 shell-pairs
 CoulSu:  IPart=    9 IPartR=    9 CPU=   -1 GPU=   -1.
 Enter PrismC:  IPart=  5 JobTyp=20 DoJE=F Cont=F.
 Enter PrismC:  IPart=  7 JobTyp=20 DoJE=F Cont=F.
 Enter PrismC:  IPart=  3 JobTyp=20 DoJE=F Cont=F.
 Enter PrismC:  IPart= 10 JobTyp=20 DoJE=F Cont=F.
 Enter PrismC:  IPart=  8 JobTyp=20 DoJE=F Cont=F.
 CoulSu:  IPart=    2 IPartR=    2 CPU=   -1 GPU=   -1.
 PrismC:  IPart=    10 DynPar=F LinDyn=F Incr=           1 UseFst=F UseS4=T ISplat=1.
 PrismC was handed   357891321 working-precision words and     3 shell-pairs
 PrismC:  IPart=     7 DynPar=F LinDyn=F Incr=           1 UseFst=F UseS4=T ISplat=1.
 CoulSu:  IPart=   11 IPartR=   11 CPU=   -1 GPU=   -1.
 PrismC:  IPart=     5 DynPar=F LinDyn=F Incr=           1 UseFst=F UseS4=T ISplat=1.
 PrismC was handed   357891321 working-precision words and     3 shell-pairs
 PrismC:  IPart=     3 DynPar=F LinDyn=F Incr=           1 UseFst=F UseS4=T ISplat=1.
 PrismC was handed   357891321 working-precision words and     3 shell-pairs
 PrismC was handed   357891321 working-precision words and     3 shell-pairs
 PrismC:  IPart=     8 DynPar=F LinDyn=F Incr=           1 UseFst=F UseS4=T ISplat=1.
 PrismC was handed   357891321 working-precision words and     3 shell-pairs
 CoulSu:  IPart=    1 IPartR=    1 CPU=   -1 GPU=   -1.
 Enter PrismC:  IPart=  9 JobTyp=20 DoJE=F Cont=F.
 Enter PrismC:  IPart= 11 JobTyp=20 DoJE=F Cont=F.
 Enter PrismC:  IPart=  1 JobTyp=20 DoJE=F Cont=F.
 Enter PrismC:  IPart=  2 JobTyp=20 DoJE=F Cont=F.
 PrismC:  IPart=     9 DynPar=F LinDyn=F Incr=           1 UseFst=F UseS4=T ISplat=1.
 PrismC:  IPart=    11 DynPar=F LinDyn=F Incr=           1 UseFst=F UseS4=T ISplat=1.
 PrismC was handed   357891321 working-precision words and     3 shell-pairs
 PrismC:  IPart=     1 DynPar=F LinDyn=F Incr=           1 UseFst=F UseS4=T ISplat=1.
 PrismC was handed   357891321 working-precision words and     3 shell-pairs
 PrismC:  IPart=     2 DynPar=F LinDyn=F Incr=           1 UseFst=F UseS4=T ISplat=1.
 PrismC was handed   357891321 working-precision words and     3 shell-pairs
 PrismC was handed   357891321 working-precision words and     3 shell-pairs
 IPart=  0 NShTot=           1 NShNF=           1 NShFF=           0 MinMC=     218
           NShCPU=           1 NBCPU=           1 AvBCPU=         1.0
           NShGPU=           0 NBGPU=           0 AvBGPU=         0.0
 CoulSu-ThDecC:  IPartSL=    0    0 NPrtUSL=   12    1 IThBeg=    0 IThEnd=   11 CPU=   -1 GPU=   -1 NThAct=   12.
 IPart=  4 NShTot=           1 NShNF=           1 NShFF=           0 MinMC=     218
           NShCPU=           1 NBCPU=           1 AvBCPU=         1.0
           NShGPU=           0 NBGPU=           0 AvBGPU=         0.0
 CoulSu-ThDecC:  IPartSL=    4    0 NPrtUSL=   12    1 IThBeg=    0 IThEnd=   11 CPU=   -1 GPU=   -1 NThAct=   11.
 IPart= 10 NShTot=           0 NShNF=           0 NShFF=           0 MinMC=     218
           NShCPU=           0 NBCPU=           0 AvBCPU=         0.0
           NShGPU=           0 NBGPU=           0 AvBGPU=         0.0
 CoulSu-ThDecC:  IPartSL=   10    0 NPrtUSL=   12    1 IThBeg=    0 IThEnd=   11 CPU=   -1 GPU=   -1 NThAct=   10.
 IPart=  5 NShTot=           0 NShNF=           0 NShFF=           0 MinMC=     218
           NShCPU=           0 NBCPU=           0 AvBCPU=         0.0
           NShGPU=           0 NBGPU=           0 AvBGPU=         0.0
 CoulSu-ThDecC:  IPartSL=    5    0 NPrtUSL=   12    1 IThBeg=    0 IThEnd=   11 CPU=   -1 GPU=   -1 NThAct=    9.
 IPart=  9 NShTot=           0 NShNF=           0 NShFF=           0 MinMC=     218
           NShCPU=           0 NBCPU=           0 AvBCPU=         0.0
           NShGPU=           0 NBGPU=           0 AvBGPU=         0.0
 CoulSu-ThDecC:  IPartSL=    9    0 NPrtUSL=   12    1 IThBeg=    0 IThEnd=   11 CPU=   -1 GPU=   -1 NThAct=    8.
 IPart=  2 NShTot=           0 NShNF=           0 NShFF=           0 MinMC=     218
           NShCPU=           0 NBCPU=           0 AvBCPU=         0.0
           NShGPU=           0 NBGPU=           0 AvBGPU=         0.0
 CoulSu-ThDecC:  IPartSL=    2    0 NPrtUSL=   12    1 IThBeg=    0 IThEnd=   11 CPU=   -1 GPU=   -1 NThAct=    7.
 IPart=  1 NShTot=           0 NShNF=           0 NShFF=           0 MinMC=     218
           NShCPU=           0 NBCPU=           0 AvBCPU=         0.0
           NShGPU=           0 NBGPU=           0 AvBGPU=         0.0
 CoulSu-ThDecC:  IPartSL=    1    0 NPrtUSL=   12    1 IThBeg=    0 IThEnd=   11 CPU=   -1 GPU=   -1 NThAct=    6.
 IPart= 11 NShTot=           0 NShNF=           0 NShFF=           0 MinMC=     218
           NShCPU=           0 NBCPU=           0 AvBCPU=         0.0
           NShGPU=           0 NBGPU=           0 AvBGPU=         0.0
 CoulSu-ThDecC:  IPartSL=   11    0 NPrtUSL=   12    1 IThBeg=    0 IThEnd=   11 CPU=   -1 GPU=   -1 NThAct=    5.
 IPart=  8 NShTot=           1 NShNF=           1 NShFF=           0 MinMC=     218
           NShCPU=           1 NBCPU=           1 AvBCPU=         1.0
           NShGPU=           0 NBGPU=           0 AvBGPU=         0.0
 CoulSu-ThDecC:  IPartSL=    8    0 NPrtUSL=   12    1 IThBeg=    0 IThEnd=   11 CPU=   -1 GPU=   -1 NThAct=    4.
 IPart=  7 NShTot=           1 NShNF=           1 NShFF=           0 MinMC=     218
           NShCPU=           1 NBCPU=           1 AvBCPU=         1.0
           NShGPU=           0 NBGPU=           0 AvBGPU=         0.0
 CoulSu-ThDecC:  IPartSL=    7    0 NPrtUSL=   12    1 IThBeg=    0 IThEnd=   11 CPU=   -1 GPU=   -1 NThAct=    3.
 IPart=  3 NShTot=           1 NShNF=           1 NShFF=           0 MinMC=     218
           NShCPU=           1 NBCPU=           1 AvBCPU=         1.0
           NShGPU=           0 NBGPU=           0 AvBGPU=         0.0
 CoulSu-ThDecC:  IPartSL=    3    0 NPrtUSL=   12    1 IThBeg=    0 IThEnd=   11 CPU=   -1 GPU=   -1 NThAct=    2.
 Enter PrismC:  IPart=  6 JobTyp=20 DoJE=F Cont=F.
 PrismC:  IPart=     6 DynPar=F LinDyn=F Incr=           1 UseFst=F UseS4=T ISplat=1.
 PrismC was handed   357891321 working-precision words and     3 shell-pairs
 IPart=  6 NShTot=           1 NShNF=           1 NShFF=           0 MinMC=     218
           NShCPU=           1 NBCPU=           1 AvBCPU=         1.0
           NShGPU=           0 NBGPU=           0 AvBGPU=         0.0
 CoulSu-ThDecC:  IPartSL=    6    0 NPrtUSL=   12    1 IThBeg=    0 IThEnd=   11 CPU=   -1 GPU=   -1 NThAct=    1.
 CoulSu:  NxtVal=             13 LenVP=      357891322 MinMC=     218.
 IniFok:  ToCart=T IDoP0=0 DoConv=T DoRafP=F DoAdj=T
            6 integrals produced for a total of            6.
  END OF INTEGRAL PRINTING.

 warning: entry into irel
 Leave Link  320 at Thu Oct 15 01:13:35 2020, MaxMem=  4294967296 cpu:               1.3 elap:               0.1
 (Enter /opt/gaussian/gdv-20180628-i14+/gdv/l316.exe)



 *** Dumping Two-Electron integrals ***



 ISMode= 0 Mode= 1 IBase=         1 IBasD=         1    131073
 DBase=         0 DBasD=         0         0 IReset=         2    131070
 IntCnt=         6 ITotal=         6 NWIIB=    131072 ISym2E=0
 I=  2 J=  2 K=  1 L=  1 Int=  0.569994883105D+00
 I=  2 J=  1 K=  1 L=  1 Int=  0.444591124594D+00
 I=  2 J=  2 K=  2 L=  1 Int=  0.444591124594D+00
 I=  2 J=  2 K=  2 L=  2 Int=  0.774605944194D+00
 I=  2 J=  1 K=  2 L=  1 Int=  0.297590551860D+00
 I=  1 J=  1 K=  1 L=  1 Int=  0.774605944194D+00
 Leave Link  316 at Thu Oct 15 01:13:35 2020, MaxMem=  4294967296 cpu:               0.3 elap:               0.0
 (Enter /opt/gaussian/gdv-20180628-i14+/gdv/l308.exe)
 Dipole velocity integrals will be written to rwf   572.
 Entering OneElI...
 OneElI was handed  4294967260 working-precision words.
 Calculate R x Del and Del integrals.
    NBasis =     2  MinDer = 0  MaxDer = 0
 Requested accuracy = 0.1000D-12
 ShPair: Thresh= 1.00D-13 NBox=     0 BxSize= 0.00D+00 RnKept= 1.40D+00
         NSMCal=                    3 NSMKep=                   3
 PrmmSu-InSpLW:  IPartL=    0 NPrtUS=    1 NPrtUL=    1 DoSpLW=F IThBeg=    0 IThEnd=    0 NThAct=    1.
 PrSmSu:  IncTry=   512 NBBP=              3 NTPThr=   100 NPartT=    1 Incr=           1 LDynOK=F GPUOK=F.
 PrsmSu:  NPrtUS=   1 ThrOK=F IAlg=2 LenDen=           0 ISkipM=0 DoSpLW=F IThBeg=    0 IThEnd=    0.
 Prism:   IPart=     0 DynPar=F LinDyn=F Incr=           1.
 PRISM was handed  4294966135 working-precision words and     3 shell-pairs
 IPart=  0 NShTot=           3 NBatch=           1 AvBLen=         3.0
 PrsmSu-ThDecC:  IPartSL=    0    0 NPrtUSL=    1    1 IThBeg=    0 IThEnd=    0 CPU=   -1 GPU=   -1 NThAct=    1.
 PrSmSu:  NxtVal=              2.
 Dipole Velocity for IMat=    1:
                1             2 
      1  0.000000D+00
      2  0.000000D+00  0.000000D+00
 Dipole Velocity for IMat=    2:
                1             2 
      1  0.000000D+00
      2  0.000000D+00  0.000000D+00
 Dipole Velocity for IMat=    3:
                1             2 
      1  0.000000D+00
      2 -0.346262D+00  0.000000D+00
 R x Del for IMat=    1:
                1             2 
      1  0.000000D+00
      2  0.000000D+00  0.000000D+00
 R x Del for IMat=    2:
                1             2 
      1  0.000000D+00
      2  0.000000D+00  0.000000D+00
 R x Del for IMat=    3:
                1             2 
      1  0.000000D+00
      2  0.000000D+00  0.000000D+00
< mu | del r + r del | nu > integrals: XX
                1             2 
      1  0.000000D+00
      2  0.000000D+00  0.000000D+00
< mu | del r + r del | nu > integrals: YY
                1             2 
      1  0.000000D+00
      2  0.000000D+00  0.000000D+00
< mu | del r + r del | nu > integrals: ZZ
                1             2 
      1  0.000000D+00
      2  0.000000D+00  0.000000D+00
< mu | del r + r del | nu > integrals: XY
                1             2 
      1  0.000000D+00
      2  0.000000D+00  0.000000D+00
< mu | del r + r del | nu > integrals: XZ
                1             2 
      1  0.000000D+00
      2  0.000000D+00  0.000000D+00
< mu | del r + r del | nu > integrals: YZ
                1             2 
      1  0.000000D+00
      2  0.000000D+00  0.000000D+00
 Leave Link  308 at Thu Oct 15 01:13:35 2020, MaxMem=  4294967296 cpu:               0.3 elap:               0.0
 (Enter /opt/gaussian/gdv-20180628-i14+/gdv/l401.exe)
 Initial guess wavefunction:
 SetAtRh:  ITypeU=  14 NETotI=       2 ICharg=  0 NETot=       2.
 StAtR1:  I=    1 I1=    1 IA=  1 C=   1.0 OKShel=T
                                                  S
                                                  1
 StAtR1:  I=    2 I1=    2 IA=  1 C=   1.0 OKShel=T
                                                  S
                                                  1
          I=    1 IA=  1 I1=    1 NAtG=10 NE=   1.000 C=   1.000 Err=-1.35D-12
          I=    2 IA=  1 I1=    2 NAtG=10 NE=   1.000 C=   1.000 Err=-1.35D-12
 ShPair: Thresh= 1.00D-12 NBox=     0 BxSize= 0.00D+00 RnKept= 1.40D+00
         NSMCal=                    3 NSMKep=                   3
 ReadGW:  IGet=1 IStart=           1 Next=           1 LGW=           0.
 ExpMin= 1.69D-01 ExpMax= 3.43D+00 ExpMxC= 3.43D+00 IAcc=3 IRadAn=         5 AccDes= 0.00D+00
 Harris functional with IExCor=  205 and IRadAn=       5 diagonalized for initial guess.
 HarFok:  IExCor=  205 AccDes= 0.00D+00 IRadAn=         5 IDoV= 1 UseB2=F ITyADJ=14
 ICtDFT=  3500011 ScaDFX=  1.000000  1.000000  1.000000  1.000000
 Pruned (  99, 590) grid will be used in numerical quadrature.
 CkSvGd:  ISavGI=        -1 IRadAn=       5 IRASav=       0 ISavGd=        -1.
 SetAtRh:  ITypeU=  13 NETotI=       2 ICharg=  0 NETot=       2.
 StAtR1:  I=    1 I1=    1 IA=  1 C=   1.0 OKShel=T
                                                  S
                                                  1
 StAtR1:  I=    2 I1=    2 IA=  1 C=   1.0 OKShel=T
                                                  S
                                                  1
          I=    1 IA=  1 I1=    1 NAtG= 9 NE=   1.000 C=   1.000 Err=-2.15D-12
          I=    2 IA=  1 I1=    2 NAtG= 9 NE=   1.000 C=   1.000 Err=-2.15D-12
 CalDSu-InSpLW:  IPartL=    0 NPrtUS=   12 NPrtUL=    1 DoSpLW=F IThBeg=    0 IThEnd=   11 NThAct=   12.
 CalDSu:  NPrtUS=  12 ThrOK=T IAlg=2 DoDPD=F LenP=           3 LenD1P=             0 GPUOK=F
          ISkipM=0 DoSpLW=F IThBeg=    0 IThEnd=   11.
 IPart=  0 IRanGd=          0 ScrnBf=T ScrnGd=T RCrit=4.00D+00 DoMicB=T.
 CutRad = 1000.00    CtRdIn =    0.00    XCrit =  15.00   ICut = 0
 IPart= 10 IRanGd=          0 ScrnBf=T ScrnGd=T RCrit=4.00D+00 DoMicB=T.
 CutRad = 1000.00    CtRdIn =    0.00    XCrit =  15.00   ICut = 0
 IPart=  2 IRanGd=          0 ScrnBf=T ScrnGd=T RCrit=4.00D+00 DoMicB=T.
 CutRad = 1000.00    CtRdIn =    0.00    XCrit =  15.00   ICut = 0
 IPart=  1 IRanGd=          0 ScrnBf=T ScrnGd=T RCrit=4.00D+00 DoMicB=T.
 IPart=  3 IRanGd=          0 ScrnBf=T ScrnGd=T RCrit=4.00D+00 DoMicB=T.
 CutRad = 1000.00    CtRdIn =    0.00    XCrit =  15.00   ICut = 0
 CutRad = 1000.00    CtRdIn =    0.00    XCrit =  15.00   ICut = 0
 Pruned (  99, 590) grid will be used in numerical quadrature.
 Pruned (  99, 590) grid will be used in numerical quadrature.
 Pruned (  99, 590) grid will be used in numerical quadrature.
 Pruned (  99, 590) grid will be used in numerical quadrature.
 Pruned (  99, 590) grid will be used in numerical quadrature.
 IPart= 11 IRanGd=          0 ScrnBf=T ScrnGd=T RCrit=4.00D+00 DoMicB=T.
 IPart=  1 Atom number   1 atomic number  1 has       21352 grid points.
 CutRad = 1000.00    CtRdIn =    0.00    XCrit =  15.00   ICut = 0
 IPart=  3 Atom number   1 atomic number  1 has       21352 grid points.
 IPart=  6 IRanGd=          0 ScrnBf=T ScrnGd=T RCrit=4.00D+00 DoMicB=T.
 Pruned (  99, 590) grid will be used in numerical quadrature.
 IPart=  5 IRanGd=          0 ScrnBf=T ScrnGd=T RCrit=4.00D+00 DoMicB=T.
 At   1 B   2: 100.0% Sh 100.0 % Bf    1 runs, min    2 max    2 av    2.0
 IPart=  3 Atom   1 batch    2 overlaps    2 atoms,     2 shells and     2 DB shells.   NGrid=      1552
 CutRad = 1000.00    CtRdIn =    0.00    XCrit =  15.00   ICut = 0
 IPart=  2 Atom number   1 atomic number  1 has       21352 grid points.
 CutRad = 1000.00    CtRdIn =    0.00    XCrit =  15.00   ICut = 0
 Pruned (  99, 590) grid will be used in numerical quadrature.
 IPart=  7 IRanGd=          0 ScrnBf=T ScrnGd=T RCrit=4.00D+00 DoMicB=T.
 Pruned (  99, 590) grid will be used in numerical quadrature.
 IPart=  0 Atom number   1 atomic number  1 has       21352 grid points.
 CutRad = 1000.00    CtRdIn =    0.00    XCrit =  15.00   ICut = 0
 Symmetry reduced   194 angular points to   194 for atom    1.
 IPart=  8 IRanGd=          0 ScrnBf=T ScrnGd=T RCrit=4.00D+00 DoMicB=T.
 Pruned (  99, 590) grid will be used in numerical quadrature.
 CutRad = 1000.00    CtRdIn =    0.00    XCrit =  15.00   ICut = 0
 IPart=  5 Atom number   1 atomic number  1 has       21352 grid points.
 At   1 B   4: 100.0% Sh 100.0 % Bf    1 runs, min    2 max    2 av    2.0
 IPart=  0 Atom   1 batch    4 overlaps    2 atoms,     2 shells and     2 DB shells.   NGrid=      1180
 IPart=  6 Atom number   1 atomic number  1 has       21352 grid points.
 At   1 B   7: 100.0% Sh 100.0 % Bf    1 runs, min    2 max    2 av    2.0
 IPart=  5 Atom   1 batch    7 overlaps    2 atoms,     2 shells and     2 DB shells.   NGrid=      1180
 IPart=  7 Atom number   1 atomic number  1 has       21352 grid points.
 At   1 B   8: 100.0% Sh 100.0 % Bf    1 runs, min    2 max    2 av    2.0
 IPart=  6 Atom   1 batch    8 overlaps    2 atoms,     2 shells and     2 DB shells.   NGrid=      1180
 Pruned (  99, 590) grid will be used in numerical quadrature.
 At   1 B   9: 100.0% Sh 100.0 % Bf    1 runs, min    2 max    2 av    2.0
 IPart=  7 Atom   1 batch    9 overlaps    2 atoms,     2 shells and     2 DB shells.   NGrid=      1180
 Symmetry reduced   590 angular points to   590 for atom    1.
 At   1 B   5: 100.0% Sh 100.0 % Bf    1 runs, min    2 max    2 av    2.0
 IPart=  2 Atom   1 batch    5 overlaps    2 atoms,     2 shells and     2 DB shells.   NGrid=      1180
 IPart= 11 Atom number   1 atomic number  1 has       21352 grid points.
 Symmetry reduced   590 angular points to   590 for atom    1.
 At   1 B   6: 100.0% Sh 100.0 % Bf    1 runs, min    2 max    2 av    2.0
 IPart= 11 Atom   1 batch    6 overlaps    2 atoms,     2 shells and     2 DB shells.   NGrid=      1180
 Symmetry reduced   590 angular points to   590 for atom    1.
 Symmetry reduced   590 angular points to   590 for atom    1.
 IPart=  8 Atom number   1 atomic number  1 has       21352 grid points.
 IPart=  9 IRanGd=          0 ScrnBf=T ScrnGd=T RCrit=4.00D+00 DoMicB=T.
 At   1 B  10: 100.0% Sh 100.0 % Bf    1 runs, min    2 max    2 av    2.0
 IPart=  8 Atom   1 batch   10 overlaps    2 atoms,     2 shells and     2 DB shells.   NGrid=      1180
 Symmetry reduced   590 angular points to   590 for atom    1.
 Symmetry reduced   590 angular points to   590 for atom    1.
 CutRad = 1000.00    CtRdIn =    0.00    XCrit =  15.00   ICut = 0
 Symmetry reduced   590 angular points to   590 for atom    1.
 At   1 B   1: 100.0% Sh 100.0 % Bf    1 runs, min    2 max    2 av    2.0
 IPart=  1 Atom   1 batch    1 overlaps    2 atoms,     2 shells and     2 DB shells.   NGrid=      2838
 Pruned (  99, 590) grid will be used in numerical quadrature.
 IPart=  9 Atom number   1 atomic number  1 has       21352 grid points.
 Symmetry reduced    86 angular points to    86 for atom    1.
 At   1 B  11: 100.0% Sh 100.0 % Bf    1 runs, min    2 max    2 av    2.0
 IPart=  9 Atom   1 batch   11 overlaps    2 atoms,     2 shells and     2 DB shells.   NGrid=      1180
 IPart=  4 IRanGd=          0 ScrnBf=T ScrnGd=T RCrit=4.00D+00 DoMicB=T.
 Symmetry reduced   590 angular points to   590 for atom    1.
 CutRad = 1000.00    CtRdIn =    0.00    XCrit =  15.00   ICut = 0
 Pruned (  99, 590) grid will be used in numerical quadrature.
 IPart=  4 Atom number   1 atomic number  1 has       21352 grid points.
 At   1 B  12: 100.0% Sh 100.0 % Bf    1 runs, min    2 max    2 av    2.0
 IPart=  4 Atom   1 batch   12 overlaps    2 atoms,     2 shells and     2 DB shells.   NGrid=      1180
 Symmetry reduced   590 angular points to   590 for atom    1.
 IPart= 10 Atom number   1 atomic number  1 has       21352 grid points.
 At   1 B  13: 100.0% Sh 100.0 % Bf    1 runs, min    2 max    2 av    2.0
 IPart=  8 Atom   1 batch   13 overlaps    2 atoms,     2 shells and     2 DB shells.   NGrid=       604
 Pruned (  99, 590) grid will be used in numerical quadrature.
 At   1 B  14: 100.0% Sh 100.0 % Bf    1 runs, min    2 max    2 av    2.0
 IPart=  7 Atom   1 batch   14 overlaps    2 atoms,     2 shells and     2 DB shells.   NGrid=       604
 At   1 B  15: 100.0% Sh 100.0 % Bf    1 runs, min    2 max    2 av    2.0
 IPart=  5 Atom   1 batch   15 overlaps    2 atoms,     2 shells and     2 DB shells.   NGrid=       604
 Symmetry reduced   302 angular points to   302 for atom    1.
 IPart=  3 Atom number   2 atomic number  1 has       21352 grid points.
 At   1 B  17: 100.0% Sh 100.0 % Bf    1 runs, min    2 max    2 av    2.0
 IPart= 11 Atom   1 batch   17 overlaps    2 atoms,     2 shells and     2 DB shells.   NGrid=       604
 At   2 B   2: 100.0% Sh 100.0 % Bf    1 runs, min    2 max    2 av    2.0
 IPart=  3 Atom   2 batch    2 overlaps    2 atoms,     2 shells and     2 DB shells.   NGrid=      1552
 Pruned (  99, 590) grid will be used in numerical quadrature.
 Pruned (  99, 590) grid will be used in numerical quadrature.
 Symmetry reduced   194 angular points to   194 for atom    2.
 At   1 B  18: 100.0% Sh 100.0 % Bf    1 runs, min    2 max    2 av    2.0
 IPart=  4 Atom   1 batch   18 overlaps    2 atoms,     2 shells and     2 DB shells.   NGrid=       604
 Symmetry reduced   302 angular points to   302 for atom    1.
 Symmetry reduced   302 angular points to   302 for atom    1.
 Symmetry reduced   302 angular points to   302 for atom    1.
 IPart=  1 Atom number   2 atomic number  1 has       21352 grid points.
 Pruned (  99, 590) grid will be used in numerical quadrature.
 Symmetry reduced   302 angular points to   302 for atom    1.
 At   2 B   4: 100.0% Sh 100.0 % Bf    1 runs, min    2 max    2 av    2.0
 IPart=  1 Atom   2 batch    4 overlaps    2 atoms,     2 shells and     2 DB shells.   NGrid=      1180
 IPart=  0 Atom number   2 atomic number  1 has       21352 grid points.
 At   1 B  16: 100.0% Sh 100.0 % Bf    1 runs, min    2 max    2 av    2.0
 IPart=  2 Atom   1 batch   16 overlaps    2 atoms,     2 shells and     2 DB shells.   NGrid=       604
 At   2 B   1: 100.0% Sh 100.0 % Bf    1 runs, min    2 max    2 av    2.0
 IPart=  0 Atom   2 batch    1 overlaps    2 atoms,     2 shells and     2 DB shells.   NGrid=      2838
 At   1 B   3: 100.0% Sh 100.0 % Bf    1 runs, min    2 max    2 av    2.0
 IPart= 10 Atom   1 batch    3 overlaps    2 atoms,     2 shells and     2 DB shells.   NGrid=      2416
 Symmetry reduced    86 angular points to    86 for atom    2.
 Symmetry reduced   302 angular points to   302 for atom    1.
 IPart=  9 Atom number   2 atomic number  1 has       21352 grid points.
 Symmetry reduced   302 angular points to   302 for atom    1.
 At   2 B   3: 100.0% Sh 100.0 % Bf    1 runs, min    2 max    2 av    2.0
 IPart=  9 Atom   2 batch    3 overlaps    2 atoms,     2 shells and     2 DB shells.   NGrid=      2416
 Symmetry reduced   590 angular points to   590 for atom    2.
 Symmetry reduced   302 angular points to   302 for atom    2.
 Pruned (  99, 590) grid will be used in numerical quadrature.
 IPart=  7 Atom number   2 atomic number  1 has       21352 grid points.
 Pruned (  99, 590) grid will be used in numerical quadrature.
 At   2 B   5: 100.0% Sh 100.0 % Bf    1 runs, min    2 max    2 av    2.0
 IPart=  7 Atom   2 batch    5 overlaps    2 atoms,     2 shells and     2 DB shells.   NGrid=      1180
 IPart=  8 Atom number   2 atomic number  1 has       21352 grid points.
 At   2 B   6: 100.0% Sh 100.0 % Bf    1 runs, min    2 max    2 av    2.0
 IPart=  8 Atom   2 batch    6 overlaps    2 atoms,     2 shells and     2 DB shells.   NGrid=      1180
 Symmetry reduced   590 angular points to   590 for atom    2.
 Symmetry reduced   590 angular points to   590 for atom    2.
 Pruned (  99, 590) grid will be used in numerical quadrature.
 Pruned (  99, 590) grid will be used in numerical quadrature.
 IPart=  5 Atom number   2 atomic number  1 has       21352 grid points.
 At   2 B   7: 100.0% Sh 100.0 % Bf    1 runs, min    2 max    2 av    2.0
 IPart=  5 Atom   2 batch    7 overlaps    2 atoms,     2 shells and     2 DB shells.   NGrid=      1180
 IPart=  4 Atom number   2 atomic number  1 has       21352 grid points.
 At   2 B   8: 100.0% Sh 100.0 % Bf    1 runs, min    2 max    2 av    2.0
 IPart=  4 Atom   2 batch    8 overlaps    2 atoms,     2 shells and     2 DB shells.   NGrid=      1180
 Symmetry reduced   590 angular points to   590 for atom    2.
 Symmetry reduced   590 angular points to   590 for atom    2.
 Pruned (  99, 590) grid will be used in numerical quadrature.
 IPart= 11 Atom number   2 atomic number  1 has       21352 grid points.
 At   2 B   9: 100.0% Sh 100.0 % Bf    1 runs, min    2 max    2 av    2.0
 IPart= 11 Atom   2 batch    9 overlaps    2 atoms,     2 shells and     2 DB shells.   NGrid=      1180
 Symmetry reduced   590 angular points to   590 for atom    2.
 Pruned (  99, 590) grid will be used in numerical quadrature.
 IPart=  2 Atom number   2 atomic number  1 has       21352 grid points.
 At   2 B  10: 100.0% Sh 100.0 % Bf    1 runs, min    2 max    2 av    2.0
 IPart=  2 Atom   2 batch   10 overlaps    2 atoms,     2 shells and     2 DB shells.   NGrid=      1180
 Symmetry reduced   590 angular points to   590 for atom    2.
 At   2 B  11: 100.0% Sh 100.0 % Bf    1 runs, min    2 max    2 av    2.0
 IPart=  1 Atom   2 batch   11 overlaps    2 atoms,     2 shells and     2 DB shells.   NGrid=      1180
 At   2 B  12: 100.0% Sh 100.0 % Bf    1 runs, min    2 max    2 av    2.0
 IPart=  3 Atom   2 batch   12 overlaps    2 atoms,     2 shells and     2 DB shells.   NGrid=      1180
 Symmetry reduced   590 angular points to   590 for atom    2.
 At   2 B  13: 100.0% Sh 100.0 % Bf    1 runs, min    2 max    2 av    2.0
 IPart=  8 Atom   2 batch   13 overlaps    2 atoms,     2 shells and     2 DB shells.   NGrid=       604
 At   2 B  14: 100.0% Sh 100.0 % Bf    1 runs, min    2 max    2 av    2.0
 IPart=  7 Atom   2 batch   14 overlaps    2 atoms,     2 shells and     2 DB shells.   NGrid=       604
 Symmetry reduced   302 angular points to   302 for atom    2.
 Symmetry reduced   302 angular points to   302 for atom    2.
 At   2 B  15: 100.0% Sh 100.0 % Bf    1 runs, min    2 max    2 av    2.0
 IPart=  5 Atom   2 batch   15 overlaps    2 atoms,     2 shells and     2 DB shells.   NGrid=       604
 At   2 B  16: 100.0% Sh 100.0 % Bf    1 runs, min    2 max    2 av    2.0
 IPart=  4 Atom   2 batch   16 overlaps    2 atoms,     2 shells and     2 DB shells.   NGrid=       604
 Symmetry reduced   302 angular points to   302 for atom    2.
 Symmetry reduced   302 angular points to   302 for atom    2.
 At   2 B  17: 100.0% Sh 100.0 % Bf    1 runs, min    2 max    2 av    2.0
 IPart= 11 Atom   2 batch   17 overlaps    2 atoms,     2 shells and     2 DB shells.   NGrid=       604
 Symmetry reduced   302 angular points to   302 for atom    2.
 At   2 B  18: 100.0% Sh 100.0 % Bf    1 runs, min    2 max    2 av    2.0
 IPart=  2 Atom   2 batch   18 overlaps    2 atoms,     2 shells and     2 DB shells.   NGrid=       604
 Symmetry reduced   302 angular points to   302 for atom    2.
 At   2 B  19:  50.0% Sh  50.0 % Bf    1 runs, min    1 max    1 av    1.0
 IPart=  1 Atom   2 batch   19 overlaps    2 atoms,     1 shells and     2 DB shells.   NGrid=       302
 Symmetry reduced   302 angular points to   302 for atom    2.
 IPart=  8         3416 of         3568 points in       4 batches and       22 microbatches, Max-NSigAt=       2 Max-NSgAt2=       2
 CalDSu-ThDecC:  IPartSL=    8    0 NPrtUSL=   12    1 IThBeg=    0 IThEnd=   11 CPU=   -1 GPU=   -1 NThAct=   12.
 IPart=  9         3530 of         3596 points in       2 batches and       10 microbatches, Max-NSigAt=       2 Max-NSgAt2=       2
 IPart=  7         3434 of         3568 points in       4 batches and       30 microbatches, Max-NSigAt=       2 Max-NSgAt2=       2
 CalDSu-ThDecC:  IPartSL=    9    0 NPrtUSL=   12    1 IThBeg=    0 IThEnd=   11 CPU=   -1 GPU=   -1 NThAct=   11.
 CalDSu-ThDecC:  IPartSL=    7    0 NPrtUSL=   12    1 IThBeg=    0 IThEnd=   11 CPU=   -1 GPU=   -1 NThAct=   10.
 IPart=  1         5409 of         5500 points in       4 batches and       15 microbatches, Max-NSigAt=       2 Max-NSgAt2=       2
 CalDSu-ThDecC:  IPartSL=    1    0 NPrtUSL=   12    1 IThBeg=    0 IThEnd=   11 CPU=   -1 GPU=   -1 NThAct=    9.
 IPart=  3         4210 of         4284 points in       3 batches and       14 microbatches, Max-NSigAt=       2 Max-NSgAt2=       2
 IPart=  5         3432 of         3568 points in       4 batches and       38 microbatches, Max-NSigAt=       2 Max-NSgAt2=       2
 CalDSu-ThDecC:  IPartSL=    3    0 NPrtUSL=   12    1 IThBeg=    0 IThEnd=   11 CPU=   -1 GPU=   -1 NThAct=    8.
 CalDSu-ThDecC:  IPartSL=    5    0 NPrtUSL=   12    1 IThBeg=    0 IThEnd=   11 CPU=   -1 GPU=   -1 NThAct=    7.
 IPart=  4         3360 of         3568 points in       4 batches and       49 microbatches, Max-NSigAt=       2 Max-NSgAt2=       2
 IPart=  0         4018 of         4018 points in       2 batches and        9 microbatches, Max-NSigAt=       2 Max-NSgAt2=       2
 CalDSu-ThDecC:  IPartSL=    4    0 NPrtUSL=   12    1 IThBeg=    0 IThEnd=   11 CPU=   -1 GPU=   -1 NThAct=    6.
 CalDSu-ThDecC:  IPartSL=    0    0 NPrtUSL=   12    1 IThBeg=    0 IThEnd=   11 CPU=   -1 GPU=   -1 NThAct=    5.
 IPart=  2         3422 of         3568 points in       4 batches and       44 microbatches, Max-NSigAt=       2 Max-NSgAt2=       2
 CalDSu-ThDecC:  IPartSL=    2    0 NPrtUSL=   12    1 IThBeg=    0 IThEnd=   11 CPU=   -1 GPU=   -1 NThAct=    4.
 IPart= 11         3404 of         3568 points in       4 batches and       48 microbatches, Max-NSigAt=       2 Max-NSgAt2=       2
 CalDSu-ThDecC:  IPartSL=   11    0 NPrtUSL=   12    1 IThBeg=    0 IThEnd=   11 CPU=   -1 GPU=   -1 NThAct=    3.
 Pruned (  99, 590) grid will be used in numerical quadrature.
 IPart= 10 Atom number   2 atomic number  1 has       21352 grid points.
 IPart= 10         2416 of         2416 points in       1 batches and        5 microbatches, Max-NSigAt=       2 Max-NSgAt2=       2
 CalDSu-ThDecC:  IPartSL=   10    0 NPrtUSL=   12    1 IThBeg=    0 IThEnd=   11 CPU=   -1 GPU=   -1 NThAct=    2.
 At   1 B  19:  50.0% Sh  50.0 % Bf    1 runs, min    1 max    1 av    1.0
 IPart=  6 Atom   1 batch   19 overlaps    2 atoms,     1 shells and     2 DB shells.   NGrid=       302
 Symmetry reduced   302 angular points to   302 for atom    1.
 Pruned (  99, 590) grid will be used in numerical quadrature.
 IPart=  6 Atom number   2 atomic number  1 has       21352 grid points.
 IPart=  6         1415 of         1482 points in       2 batches and        5 microbatches, Max-NSigAt=       2 Max-NSgAt2=       2
 CalDSu-ThDecC:  IPartSL=    6    0 NPrtUSL=   12    1 IThBeg=    0 IThEnd=   11 CPU=   -1 GPU=   -1 NThAct=    1.
 Requested info about the electron count:
 NE=    2 NElCor=    0 El error=9.70D-10 rel=4.85D-10 Tolerance=1.00D-03
 Shell     1     absolute error=2.98D-10              Tolerance=1.20D-02
 Shell     0       signed error=0.00D+00              Tolerance=1.00D-01
 SetAtRh:  ITypeU=  14 NETotI=       2 ICharg=  0 NETot=       2.
 StAtR1:  I=    1 I1=    1 IA=  1 C=   1.0 OKShel=T
                                                  S
                                                  1
 StAtR1:  I=    2 I1=    2 IA=  1 C=   1.0 OKShel=T
                                                  S
                                                  1
          I=    1 IA=  1 I1=    1 NAtG=10 NE=   1.000 C=   1.000 Err=-1.35D-12
          I=    2 IA=  1 I1=    2 NAtG=10 NE=   1.000 C=   1.000 Err=-1.35D-12
 FoFCou: FMM=F IPFlag=           0 FMFlag=      100000 FMFlg1=           0
         NFxFlg=           0 DoJE=T BraDBF=F KetDBF=T FulRan=T
         wScrn=  0.000000 ICntrl=       500 IOpCl=  0 I1Cent=   200000004 NGrid=           0
         NMat0=    1 NMatS0=      1 NMatT0=    0 NMatD0=    1 NMtDS0=    0 NMtDT0=    0
 Symmetry not used in FoFCou.
 FoFCou:  KetSym=T NOpSet=  1 NOpAb=1 NOp=  1.
 FoFCou:  CnvScl= 1.00D+00 Thresh= 1.00D-12 IAcrcy=      10.
 ShPair: Thresh= 1.00D-12 NBox=     0 BxSize= 0.00D+00 RnKept= 1.40D+00
         NSMCal=                    3 NSMKep=                   3
 FoFCou: LinMIO=F DoNuc=F BraDBF=F KetDBF=T HaveP=T PDBF=T HaveZ=F HaveW=F
         NIJTC =       1 NIJTAt=       0 NIJTCD=       1 NIJTT =       2
         IJTBeg=       1 IJTEnd=       1 KLTBeg=       2 KLTEnd=       2
         IPTBeg=       2 IPTEnd=       2 IPTBCv=       2 IPTECv=       2
         IZTBeg=       1 IZTEnd=       1 IZTBCv=       1 IZTECv=       1
         IWTBeg=       2 IWTEnd=       2 IWTBCv=       2 IWTECv=       2
         INTBeg=       1 INTEnd=       0 IFTBCv=       1 IFTECv=       1
 Entering DenIrr
 DenIrr was handed  4294966744 working-precision words and     5 shell-pairs
 Leaving DenIrr, iEnd w/o den=        1683 nHerm=           5.
 CoulSu-InSpLW:  IPartL=    0 NPrtUS=   12 NPrtUL=    1 DoSpLW=F IThBeg=    0 IThEnd=   11 NThAct=   12.
 CoulSu:  IncTry=  1024 NBBP=              6 NTPThr=   100 NPartT=   12 Incr=           1 LDynOK=F GPUOK=F.
 CoulSu:  NPrtUS=  12 ThrOK=T IAlg=1 LenDen=           5 LWGrdD=           0 DoCopy=T ISkipM=0
          DoSpLW=F IThBeg=    0 IThEnd=   11.
 CoulSu:  IPart=    0 IPartR=    0 CPU=   -1 GPU=   -1.
 CoulSu:  IPart=    3 IPartR=    3 CPU=   -1 GPU=   -1.
 Enter PrismC:  IPart=  0 JobTyp=20 DoJE=T Cont=T.
 CoulSu:  IPart=    8 IPartR=    8 CPU=   -1 GPU=   -1.
 CoulSu:  IPart=    2 IPartR=    2 CPU=   -1 GPU=   -1.
 CoulSu:  IPart=    1 IPartR=    1 CPU=   -1 GPU=   -1.
 CoulSu:  IPart=    4 IPartR=    4 CPU=   -1 GPU=   -1.
 CoulSu:  IPart=    9 IPartR=    9 CPU=   -1 GPU=   -1.
 Enter PrismC:  IPart=  3 JobTyp=20 DoJE=T Cont=T.
 CoulSu:  IPart=    5 IPartR=    5 CPU=   -1 GPU=   -1.
 CoulSu:  IPart=    6 IPartR=    6 CPU=   -1 GPU=   -1.
 Enter PrismC:  IPart=  4 JobTyp=20 DoJE=T Cont=T.
 CoulSu:  IPart=    7 IPartR=    7 CPU=   -1 GPU=   -1.
 Enter PrismC:  IPart=  5 JobTyp=20 DoJE=T Cont=T.
 Enter PrismC:  IPart=  6 JobTyp=20 DoJE=T Cont=T.
 Enter PrismC:  IPart=  7 JobTyp=20 DoJE=T Cont=T.
 PrismC:  IPart=     0 DynPar=F LinDyn=F Incr=           1 UseFst=F UseS4=T ISplat=2.
 Enter PrismC:  IPart=  9 JobTyp=20 DoJE=T Cont=T.
 PrismC:  IPart=     6 DynPar=F LinDyn=F Incr=           1 UseFst=F UseS4=T ISplat=2.
 Enter PrismC:  IPart=  8 JobTyp=20 DoJE=T Cont=T.
 PrismC:  IPart=     7 DynPar=F LinDyn=F Incr=           1 UseFst=F UseS4=T ISplat=2.
 Enter PrismC:  IPart=  1 JobTyp=20 DoJE=T Cont=T.
 PrismC:  IPart=     5 DynPar=F LinDyn=F Incr=           1 UseFst=F UseS4=T ISplat=2.
 PrismC:  IPart=     1 DynPar=F LinDyn=F Incr=           1 UseFst=F UseS4=T ISplat=2.
 Enter PrismC:  IPart=  2 JobTyp=20 DoJE=T Cont=T.
 PrismC:  IPart=     3 DynPar=F LinDyn=F Incr=           1 UseFst=F UseS4=T ISplat=2.
 PrismC:  IPart=     4 DynPar=F LinDyn=F Incr=           1 UseFst=F UseS4=T ISplat=2.
 PrismC was handed   357912894 working-precision words and     3 shell-pairs
 PrismC:  IPart=     9 DynPar=F LinDyn=F Incr=           1 UseFst=F UseS4=T ISplat=2.
 PrismC was handed   357912894 working-precision words and     3 shell-pairs
 PrismC:  IPart=     2 DynPar=F LinDyn=F Incr=           1 UseFst=F UseS4=T ISplat=2.
 PrismC was handed   357912894 working-precision words and     3 shell-pairs
 PrismC:  IPart=     8 DynPar=F LinDyn=F Incr=           1 UseFst=F UseS4=T ISplat=2.
 PrismC was handed   357912894 working-precision words and     3 shell-pairs
 PrismC was handed   357912894 working-precision words and     3 shell-pairs
 PrismC was handed   357912894 working-precision words and     3 shell-pairs
 PrismC was handed   357912894 working-precision words and     3 shell-pairs
 PrismC was handed   357912894 working-precision words and     3 shell-pairs
 PrismC was handed   357912894 working-precision words and     3 shell-pairs
 PrismC was handed   357912894 working-precision words and     3 shell-pairs
 CoulSu:  IPart=   11 IPartR=   11 CPU=   -1 GPU=   -1.
 CoulSu:  IPart=   10 IPartR=   10 CPU=   -1 GPU=   -1.
 Enter PrismC:  IPart= 11 JobTyp=20 DoJE=T Cont=T.
 Enter PrismC:  IPart= 10 JobTyp=20 DoJE=T Cont=T.
 PrismC:  IPart=    11 DynPar=F LinDyn=F Incr=           1 UseFst=F UseS4=T ISplat=2.
 PrismC was handed   357912894 working-precision words and     3 shell-pairs
 PrismC:  IPart=    10 DynPar=F LinDyn=F Incr=           1 UseFst=F UseS4=T ISplat=2.
 PrismC was handed   357912894 working-precision words and     3 shell-pairs
 IPart=  3 NShTot=           0 NShNF=           0 NShFF=           0 MinMC=     219
           NShCPU=           0 NBCPU=           0 AvBCPU=         0.0
           NShGPU=           0 NBGPU=           0 AvBGPU=         0.0
 IPart=  7 NShTot=           0 NShNF=           0 NShFF=           0 MinMC=     219
           NShCPU=           0 NBCPU=           0 AvBCPU=         0.0
           NShGPU=           0 NBGPU=           0 AvBGPU=         0.0
 IPart=  6 NShTot=           0 NShNF=           0 NShFF=           0 MinMC=     219
           NShCPU=           0 NBCPU=           0 AvBCPU=         0.0
           NShGPU=           0 NBGPU=           0 AvBGPU=         0.0
 CoulSu-ThDecC:  IPartSL=    3    0 NPrtUSL=   12    1 IThBeg=    0 IThEnd=   11 CPU=   -1 GPU=   -1 NThAct=   12.
 IPart=  9 NShTot=           0 NShNF=           0 NShFF=           0 MinMC=     219
           NShCPU=           0 NBCPU=           0 AvBCPU=         0.0
           NShGPU=           0 NBGPU=           0 AvBGPU=         0.0
 IPart=  1 NShTot=           3 NShNF=           3 NShFF=           0 MinMC=     219
           NShCPU=           3 NBCPU=           3 AvBCPU=         1.0
           NShGPU=           0 NBGPU=           0 AvBGPU=         0.0
 CoulSu-ThDecC:  IPartSL=    6    0 NPrtUSL=   12    1 IThBeg=    0 IThEnd=   11 CPU=   -1 GPU=   -1 NThAct=   11.
 IPart=  8 NShTot=           0 NShNF=           0 NShFF=           0 MinMC=     219
           NShCPU=           0 NBCPU=           0 AvBCPU=         0.0
           NShGPU=           0 NBGPU=           0 AvBGPU=         0.0
 CoulSu-ThDecC:  IPartSL=    1    0 NPrtUSL=   12    1 IThBeg=    0 IThEnd=   11 CPU=   -1 GPU=   -1 NThAct=   10.
 CoulSu-ThDecC:  IPartSL=    8    0 NPrtUSL=   12    1 IThBeg=    0 IThEnd=   11 CPU=   -1 GPU=   -1 NThAct=    9.
 IPart=  2 NShTot=           0 NShNF=           0 NShFF=           0 MinMC=     219
           NShCPU=           0 NBCPU=           0 AvBCPU=         0.0
           NShGPU=           0 NBGPU=           0 AvBGPU=         0.0
 CoulSu-ThDecC:  IPartSL=    7    0 NPrtUSL=   12    1 IThBeg=    0 IThEnd=   11 CPU=   -1 GPU=   -1 NThAct=    8.
 CoulSu-ThDecC:  IPartSL=    2    0 NPrtUSL=   12    1 IThBeg=    0 IThEnd=   11 CPU=   -1 GPU=   -1 NThAct=    7.
 IPart=  4 NShTot=           0 NShNF=           0 NShFF=           0 MinMC=     219
           NShCPU=           0 NBCPU=           0 AvBCPU=         0.0
           NShGPU=           0 NBGPU=           0 AvBGPU=         0.0
 CoulSu-ThDecC:  IPartSL=    9    0 NPrtUSL=   12    1 IThBeg=    0 IThEnd=   11 CPU=   -1 GPU=   -1 NThAct=    6.
 CoulSu-ThDecC:  IPartSL=    4    0 NPrtUSL=   12    1 IThBeg=    0 IThEnd=   11 CPU=   -1 GPU=   -1 NThAct=    5.
 IPart=  0 NShTot=           3 NShNF=           3 NShFF=           0 MinMC=     219
           NShCPU=           3 NBCPU=           3 AvBCPU=         1.0
           NShGPU=           0 NBGPU=           0 AvBGPU=         0.0
 CoulSu-ThDecC:  IPartSL=    0    0 NPrtUSL=   12    1 IThBeg=    0 IThEnd=   11 CPU=   -1 GPU=   -1 NThAct=    4.
 IPart= 10 NShTot=           0 NShNF=           0 NShFF=           0 MinMC=     219
           NShCPU=           0 NBCPU=           0 AvBCPU=         0.0
           NShGPU=           0 NBGPU=           0 AvBGPU=         0.0
 CoulSu-ThDecC:  IPartSL=   10    0 NPrtUSL=   12    1 IThBeg=    0 IThEnd=   11 CPU=   -1 GPU=   -1 NThAct=    3.
 IPart= 11 NShTot=           0 NShNF=           0 NShFF=           0 MinMC=     219
           NShCPU=           0 NBCPU=           0 AvBCPU=         0.0
           NShGPU=           0 NBGPU=           0 AvBGPU=         0.0
 CoulSu-ThDecC:  IPartSL=   11    0 NPrtUSL=   12    1 IThBeg=    0 IThEnd=   11 CPU=   -1 GPU=   -1 NThAct=    2.
 IPart=  5 NShTot=           0 NShNF=           0 NShFF=           0 MinMC=     219
           NShCPU=           0 NBCPU=           0 AvBCPU=         0.0
           NShGPU=           0 NBGPU=           0 AvBGPU=         0.0
 CoulSu-ThDecC:  IPartSL=    5    0 NPrtUSL=   12    1 IThBeg=    0 IThEnd=   11 CPU=   -1 GPU=   -1 NThAct=    1.
 CoulSu:  NxtVal=             13 LenVP=      357912895 MinMC=     219.
 Entering FocIrr
 FocIrr was handed  4294965052 working-precision words and     3 shell-pairs
 Leaving FocIrr
 Entering DenIrr
 DenIrr was handed  4294966744 working-precision words and     5 shell-pairs
 Leaving DenIrr, iEnd w/o den=        1767 nHerm=          47.
 CoulSu-InSpLW:  IPartL=    0 NPrtUS=   12 NPrtUL=    1 DoSpLW=F IThBeg=    0 IThEnd=   11 NThAct=   12.
 CoulSu:  IncTry=  1024 NBBP=              6 NTPThr=   100 NPartT=   12 Incr=           1 LDynOK=F GPUOK=F.
 CoulSu:  NPrtUS=  12 ThrOK=T IAlg=1 LenDen=          47 LWGrdD=           0 DoCopy=T ISkipM=0
          DoSpLW=F IThBeg=    0 IThEnd=   11.
 CoulSu:  IPart=    0 IPartR=    0 CPU=   -1 GPU=   -1.
 CoulSu:  IPart=    4 IPartR=    4 CPU=   -1 GPU=   -1.
 CoulSu:  IPart=   11 IPartR=   11 CPU=   -1 GPU=   -1.
 CoulSu:  IPart=    8 IPartR=    8 CPU=   -1 GPU=   -1.
 CoulSu:  IPart=    6 IPartR=    6 CPU=   -1 GPU=   -1.
 Enter PrismC:  IPart=  0 JobTyp=20 DoJE=T Cont=F.
 CoulSu:  IPart=    2 IPartR=    2 CPU=   -1 GPU=   -1.
 PrismC:  IPart=     0 DynPar=F LinDyn=F Incr=           1 UseFst=F UseS4=T ISplat=2.
 PrismC was handed   357912803 working-precision words and     3 shell-pairs
 CoulSu:  IPart=    7 IPartR=    7 CPU=   -1 GPU=   -1.
 Enter PrismC:  IPart=  6 JobTyp=20 DoJE=T Cont=F.
 CoulSu:  IPart=    1 IPartR=    1 CPU=   -1 GPU=   -1.
 Enter PrismC:  IPart=  7 JobTyp=20 DoJE=T Cont=F.
 PrismC:  IPart=     6 DynPar=F LinDyn=F Incr=           1 UseFst=F UseS4=T ISplat=2.
 CoulSu:  IPart=    9 IPartR=    9 CPU=   -1 GPU=   -1.
 PrismC:  IPart=     7 DynPar=F LinDyn=F Incr=           1 UseFst=F UseS4=T ISplat=2.
 Enter PrismC:  IPart=  1 JobTyp=20 DoJE=T Cont=F.
 CoulSu:  IPart=   10 IPartR=   10 CPU=   -1 GPU=   -1.
 PrismC:  IPart=     1 DynPar=F LinDyn=F Incr=           1 UseFst=F UseS4=T ISplat=2.
 CoulSu:  IPart=    3 IPartR=    3 CPU=   -1 GPU=   -1.
 PrismC was handed   357912803 working-precision words and     3 shell-pairs
 PrismC was handed   357912803 working-precision words and     3 shell-pairs
 Enter PrismC:  IPart=  9 JobTyp=20 DoJE=T Cont=F.
 PrismC was handed   357912803 working-precision words and     3 shell-pairs
 PrismC:  IPart=     9 DynPar=F LinDyn=F Incr=           1 UseFst=F UseS4=T ISplat=2.
 PrismC was handed   357912803 working-precision words and     3 shell-pairs
 Enter PrismC:  IPart=  2 JobTyp=20 DoJE=T Cont=F.
 Enter PrismC:  IPart=  4 JobTyp=20 DoJE=T Cont=F.
 PrismC:  IPart=     2 DynPar=F LinDyn=F Incr=           1 UseFst=F UseS4=T ISplat=2.
 Enter PrismC:  IPart= 11 JobTyp=20 DoJE=T Cont=F.
 Enter PrismC:  IPart=  3 JobTyp=20 DoJE=T Cont=F.
 PrismC was handed   357912803 working-precision words and     3 shell-pairs
 Enter PrismC:  IPart=  8 JobTyp=20 DoJE=T Cont=F.
 PrismC:  IPart=     4 DynPar=F LinDyn=F Incr=           1 UseFst=F UseS4=T ISplat=2.
 PrismC was handed   357912803 working-precision words and     3 shell-pairs
 PrismC:  IPart=     3 DynPar=F LinDyn=F Incr=           1 UseFst=F UseS4=T ISplat=2.
 PrismC was handed   357912803 working-precision words and     3 shell-pairs
 PrismC:  IPart=     8 DynPar=F LinDyn=F Incr=           1 UseFst=F UseS4=T ISplat=2.
 PrismC was handed   357912803 working-precision words and     3 shell-pairs
 PrismC:  IPart=    11 DynPar=F LinDyn=F Incr=           1 UseFst=F UseS4=T ISplat=2.
 Enter PrismC:  IPart= 10 JobTyp=20 DoJE=T Cont=F.
 PrismC was handed   357912803 working-precision words and     3 shell-pairs
 PrismC:  IPart=    10 DynPar=F LinDyn=F Incr=           1 UseFst=F UseS4=T ISplat=2.
 PrismC was handed   357912803 working-precision words and     3 shell-pairs
 IPart=  0 NShTot=           0 NShNF=           0 NShFF=           0 MinMC=     198
           NShCPU=           0 NBCPU=           0 AvBCPU=         0.0
           NShGPU=           0 NBGPU=           0 AvBGPU=         0.0
 CoulSu-ThDecC:  IPartSL=    0    0 NPrtUSL=   12    1 IThBeg=    0 IThEnd=   11 CPU=   -1 GPU=   -1 NThAct=   12.
 IPart=  6 NShTot=           0 NShNF=           0 NShFF=           0 MinMC=     198
           NShCPU=           0 NBCPU=           0 AvBCPU=         0.0
           NShGPU=           0 NBGPU=           0 AvBGPU=         0.0
 CoulSu-ThDecC:  IPartSL=    6    0 NPrtUSL=   12    1 IThBeg=    0 IThEnd=   11 CPU=   -1 GPU=   -1 NThAct=   11.
 IPart=  1 NShTot=           0 NShNF=           0 NShFF=           0 MinMC=     198
           NShCPU=           0 NBCPU=           0 AvBCPU=         0.0
           NShGPU=           0 NBGPU=           0 AvBGPU=         0.0
 CoulSu-ThDecC:  IPartSL=    1    0 NPrtUSL=   12    1 IThBeg=    0 IThEnd=   11 CPU=   -1 GPU=   -1 NThAct=   10.
 IPart=  7 NShTot=           0 NShNF=           0 NShFF=           0 MinMC=     198
           NShCPU=           0 NBCPU=           0 AvBCPU=         0.0
           NShGPU=           0 NBGPU=           0 AvBGPU=         0.0
 CoulSu-ThDecC:  IPartSL=    7    0 NPrtUSL=   12    1 IThBeg=    0 IThEnd=   11 CPU=   -1 GPU=   -1 NThAct=    9.
 IPart=  2 NShTot=           0 NShNF=           0 NShFF=           0 MinMC=     198
           NShCPU=           0 NBCPU=           0 AvBCPU=         0.0
           NShGPU=           0 NBGPU=           0 AvBGPU=         0.0
 CoulSu-ThDecC:  IPartSL=    2    0 NPrtUSL=   12    1 IThBeg=    0 IThEnd=   11 CPU=   -1 GPU=   -1 NThAct=    8.
 IPart=  3 NShTot=           0 NShNF=           0 NShFF=           0 MinMC=     198
           NShCPU=           0 NBCPU=           0 AvBCPU=         0.0
           NShGPU=           0 NBGPU=           0 AvBGPU=         0.0
 IPart=  9 NShTot=           0 NShNF=           0 NShFF=           0 MinMC=     198
           NShCPU=           0 NBCPU=           0 AvBCPU=         0.0
           NShGPU=           0 NBGPU=           0 AvBGPU=         0.0
 CoulSu-ThDecC:  IPartSL=    3    0 NPrtUSL=   12    1 IThBeg=    0 IThEnd=   11 CPU=   -1 GPU=   -1 NThAct=    7.
 IPart= 10 NShTot=           0 NShNF=           0 NShFF=           0 MinMC=     198
           NShCPU=           0 NBCPU=           0 AvBCPU=         0.0
           NShGPU=           0 NBGPU=           0 AvBGPU=         0.0
 IPart= 11 NShTot=           0 NShNF=           0 NShFF=           0 MinMC=     198
           NShCPU=           0 NBCPU=           0 AvBCPU=         0.0
           NShGPU=           0 NBGPU=           0 AvBGPU=         0.0
 IPart=  8 NShTot=           0 NShNF=           0 NShFF=           0 MinMC=     198
           NShCPU=           0 NBCPU=           0 AvBCPU=         0.0
           NShGPU=           0 NBGPU=           0 AvBGPU=         0.0
 IPart=  4 NShTot=           0 NShNF=           0 NShFF=           0 MinMC=     198
           NShCPU=           0 NBCPU=           0 AvBCPU=         0.0
           NShGPU=           0 NBGPU=           0 AvBGPU=         0.0
 CoulSu-ThDecC:  IPartSL=    9    0 NPrtUSL=   12    1 IThBeg=    0 IThEnd=   11 CPU=   -1 GPU=   -1 NThAct=    6.
 CoulSu-ThDecC:  IPartSL=    4    0 NPrtUSL=   12    1 IThBeg=    0 IThEnd=   11 CPU=   -1 GPU=   -1 NThAct=    5.
 CoulSu-ThDecC:  IPartSL=   11    0 NPrtUSL=   12    1 IThBeg=    0 IThEnd=   11 CPU=   -1 GPU=   -1 NThAct=    4.
 CoulSu-ThDecC:  IPartSL=    8    0 NPrtUSL=   12    1 IThBeg=    0 IThEnd=   11 CPU=   -1 GPU=   -1 NThAct=    3.
 CoulSu-ThDecC:  IPartSL=   10    0 NPrtUSL=   12    1 IThBeg=    0 IThEnd=   11 CPU=   -1 GPU=   -1 NThAct=    2.
 CoulSu:  IPart=    5 IPartR=    5 CPU=   -1 GPU=   -1.
 Enter PrismC:  IPart=  5 JobTyp=20 DoJE=T Cont=F.
 PrismC:  IPart=     5 DynPar=F LinDyn=F Incr=           1 UseFst=F UseS4=T ISplat=2.
 PrismC was handed   357912803 working-precision words and     3 shell-pairs
 IPart=  5 NShTot=           0 NShNF=           0 NShFF=           0 MinMC=     198
           NShCPU=           0 NBCPU=           0 AvBCPU=         0.0
           NShGPU=           0 NBGPU=           0 AvBGPU=         0.0
 CoulSu-ThDecC:  IPartSL=    5    0 NPrtUSL=   12    1 IThBeg=    0 IThEnd=   11 CPU=   -1 GPU=   -1 NThAct=    1.
 CoulSu:  NxtVal=             13 LenVP=      357912804 MinMC=     198.
 Entering FocIrr
 FocIrr was handed  4294964884 working-precision words and     3 shell-pairs
 Leaving FocIrr
 FoFCou: FMM=F IPFlag=           0 FMFlag=      100000 FMFlg1=           0
         NFxFlg=           0 DoJE=T BraDBF=T KetDBF=T FulRan=T
         wScrn=  0.000000 ICntrl=       500 IOpCl=  0 I1Cent=   200000006 NGrid=           0
         NMat0=    1 NMatS0=      1 NMatT0=    0 NMatD0=    1 NMtDS0=    0 NMtDT0=    0
 Symmetry not used in FoFCou.
 FoFCou:  KetSym=T NOpSet=  1 NOpAb=1 NOp=  1.
 FoFCou:  CnvScl= 1.00D+00 Thresh= 1.00D-12 IAcrcy=      10.
 FoFCou: LinMIO=F DoNuc=F BraDBF=T KetDBF=T HaveP=T PDBF=T HaveZ=F HaveW=F
         NIJTC =       0 NIJTAt=       0 NIJTCD=       1 NIJTT =       1
         IJTBeg=       1 IJTEnd=       1 KLTBeg=       1 KLTEnd=       1
         IPTBeg=       1 IPTEnd=       1 IPTBCv=       1 IPTECv=       1
         IZTBeg=       1 IZTEnd=       0 IZTBCv=       1 IZTECv=       1
         IWTBeg=       1 IWTEnd=       1 IWTBCv=       1 IWTECv=       1
         INTBeg=       1 INTEnd=       0 IFTBCv=       1 IFTECv=       1
 Entering DenIrr
 DenIrr was handed  4294966744 working-precision words and     2 shell-pairs
 Leaving DenIrr, iEnd w/o den=        1109 nHerm=           2.
 CoulSu-InSpLW:  IPartL=    0 NPrtUS=   12 NPrtUL=    1 DoSpLW=F IThBeg=    0 IThEnd=   11 NThAct=   12.
 CoulSu:  IncTry=  1024 NBBP=              4 NTPThr=   100 NPartT=   12 Incr=           1 LDynOK=F GPUOK=F.
 CoulSu:  NPrtUS=  12 ThrOK=T IAlg=1 LenDen=           2 LWGrdD=           0 DoCopy=T ISkipM=0
          DoSpLW=F IThBeg=    0 IThEnd=   11.
 CoulSu:  IPart=    8 IPartR=    8 CPU=   -1 GPU=   -1.
 CoulSu:  IPart=    4 IPartR=    4 CPU=   -1 GPU=   -1.
 Enter PrismC:  IPart=  8 JobTyp=20 DoJE=T Cont=T.
 CoulSu:  IPart=    2 IPartR=    2 CPU=   -1 GPU=   -1.
 Enter PrismC:  IPart=  4 JobTyp=20 DoJE=T Cont=T.
 CoulSu:  IPart=   10 IPartR=   10 CPU=   -1 GPU=   -1.
 Enter PrismC:  IPart=  2 JobTyp=20 DoJE=T Cont=T.
 PrismC:  IPart=     8 DynPar=F LinDyn=F Incr=           1 UseFst=F UseS4=T ISplat=2.
 PrismC was handed   357913145 working-precision words and     2 shell-pairs
 PrismC:  IPart=     2 DynPar=F LinDyn=F Incr=           1 UseFst=F UseS4=T ISplat=2.
 CoulSu:  IPart=    0 IPartR=    0 CPU=   -1 GPU=   -1.
 Enter PrismC:  IPart= 10 JobTyp=20 DoJE=T Cont=T.
 PrismC was handed   357913145 working-precision words and     2 shell-pairs
 Enter PrismC:  IPart=  0 JobTyp=20 DoJE=T Cont=T.
 CoulSu:  IPart=    6 IPartR=    6 CPU=   -1 GPU=   -1.
 Enter PrismC:  IPart=  6 JobTyp=20 DoJE=T Cont=T.
 CoulSu:  IPart=    9 IPartR=    9 CPU=   -1 GPU=   -1.
 Enter PrismC:  IPart=  9 JobTyp=20 DoJE=T Cont=T.
 CoulSu:  IPart=    3 IPartR=    3 CPU=   -1 GPU=   -1.
 CoulSu:  IPart=    7 IPartR=    7 CPU=   -1 GPU=   -1.
 Enter PrismC:  IPart=  3 JobTyp=20 DoJE=T Cont=T.
 CoulSu:  IPart=    5 IPartR=    5 CPU=   -1 GPU=   -1.
 PrismC:  IPart=     4 DynPar=F LinDyn=F Incr=           1 UseFst=F UseS4=T ISplat=2.
 PrismC was handed   357913145 working-precision words and     2 shell-pairs
 PrismC:  IPart=     9 DynPar=F LinDyn=F Incr=           1 UseFst=F UseS4=T ISplat=2.
 Enter PrismC:  IPart=  7 JobTyp=20 DoJE=T Cont=T.
 PrismC was handed   357913145 working-precision words and     2 shell-pairs
 CoulSu:  IPart=   11 IPartR=   11 CPU=   -1 GPU=   -1.
 Enter PrismC:  IPart=  5 JobTyp=20 DoJE=T Cont=T.
 Enter PrismC:  IPart= 11 JobTyp=20 DoJE=T Cont=T.
 PrismC:  IPart=     6 DynPar=F LinDyn=F Incr=           1 UseFst=F UseS4=T ISplat=2.
 PrismC was handed   357913145 working-precision words and     2 shell-pairs
 PrismC:  IPart=     5 DynPar=F LinDyn=F Incr=           1 UseFst=F UseS4=T ISplat=2.
 PrismC was handed   357913145 working-precision words and     2 shell-pairs
 PrismC:  IPart=     7 DynPar=F LinDyn=F Incr=           1 UseFst=F UseS4=T ISplat=2.
 PrismC was handed   357913145 working-precision words and     2 shell-pairs
 PrismC:  IPart=     3 DynPar=F LinDyn=F Incr=           1 UseFst=F UseS4=T ISplat=2.
 PrismC was handed   357913145 working-precision words and     2 shell-pairs
 PrismC:  IPart=    11 DynPar=F LinDyn=F Incr=           1 UseFst=F UseS4=T ISplat=2.
 PrismC was handed   357913145 working-precision words and     2 shell-pairs
 PrismC:  IPart=    10 DynPar=F LinDyn=F Incr=           1 UseFst=F UseS4=T ISplat=2.
 PrismC was handed   357913145 working-precision words and     2 shell-pairs
 PrismC:  IPart=     0 DynPar=F LinDyn=F Incr=           1 UseFst=F UseS4=T ISplat=2.
 PrismC was handed   357913145 working-precision words and     2 shell-pairs
 IPart=  8 NShTot=           0 NShNF=           0 NShFF=           0 MinMC=     198
           NShCPU=           0 NBCPU=           0 AvBCPU=         0.0
           NShGPU=           0 NBGPU=           0 AvBGPU=         0.0
 CoulSu-ThDecC:  IPartSL=    8    0 NPrtUSL=   12    1 IThBeg=    0 IThEnd=   11 CPU=   -1 GPU=   -1 NThAct=   12.
 IPart=  2 NShTot=           0 NShNF=           0 NShFF=           0 MinMC=     198
           NShCPU=           0 NBCPU=           0 AvBCPU=         0.0
           NShGPU=           0 NBGPU=           0 AvBGPU=         0.0
 CoulSu-ThDecC:  IPartSL=    2    0 NPrtUSL=   12    1 IThBeg=    0 IThEnd=   11 CPU=   -1 GPU=   -1 NThAct=   11.
 IPart=  4 NShTot=           0 NShNF=           0 NShFF=           0 MinMC=     198
           NShCPU=           0 NBCPU=           0 AvBCPU=         0.0
           NShGPU=           0 NBGPU=           0 AvBGPU=         0.0
 CoulSu-ThDecC:  IPartSL=    4    0 NPrtUSL=   12    1 IThBeg=    0 IThEnd=   11 CPU=   -1 GPU=   -1 NThAct=   10.
 IPart=  9 NShTot=           0 NShNF=           0 NShFF=           0 MinMC=     198
           NShCPU=           0 NBCPU=           0 AvBCPU=         0.0
           NShGPU=           0 NBGPU=           0 AvBGPU=         0.0
 CoulSu-ThDecC:  IPartSL=    9    0 NPrtUSL=   12    1 IThBeg=    0 IThEnd=   11 CPU=   -1 GPU=   -1 NThAct=    9.
 IPart=  5 NShTot=           0 NShNF=           0 NShFF=           0 MinMC=     198
           NShCPU=           0 NBCPU=           0 AvBCPU=         0.0
           NShGPU=           0 NBGPU=           0 AvBGPU=         0.0
 IPart=  7 NShTot=           0 NShNF=           0 NShFF=           0 MinMC=     198
           NShCPU=           0 NBCPU=           0 AvBCPU=         0.0
           NShGPU=           0 NBGPU=           0 AvBGPU=         0.0
 CoulSu-ThDecC:  IPartSL=    5    0 NPrtUSL=   12    1 IThBeg=    0 IThEnd=   11 CPU=   -1 GPU=   -1 NThAct=    8.
 CoulSu-ThDecC:  IPartSL=    7    0 NPrtUSL=   12    1 IThBeg=    0 IThEnd=   11 CPU=   -1 GPU=   -1 NThAct=    7.
 IPart= 11 NShTot=           0 NShNF=           0 NShFF=           0 MinMC=     198
           NShCPU=           0 NBCPU=           0 AvBCPU=         0.0
           NShGPU=           0 NBGPU=           0 AvBGPU=         0.0
 IPart=  6 NShTot=           0 NShNF=           0 NShFF=           0 MinMC=     198
           NShCPU=           0 NBCPU=           0 AvBCPU=         0.0
           NShGPU=           0 NBGPU=           0 AvBGPU=         0.0
 IPart=  0 NShTot=           2 NShNF=           2 NShFF=           0 MinMC=     198
           NShCPU=           2 NBCPU=           2 AvBCPU=         1.0
           NShGPU=           0 NBGPU=           0 AvBGPU=         0.0
 IPart= 10 NShTot=           0 NShNF=           0 NShFF=           0 MinMC=     198
           NShCPU=           0 NBCPU=           0 AvBCPU=         0.0
           NShGPU=           0 NBGPU=           0 AvBGPU=         0.0
 IPart=  3 NShTot=           0 NShNF=           0 NShFF=           0 MinMC=     198
           NShCPU=           0 NBCPU=           0 AvBCPU=         0.0
           NShGPU=           0 NBGPU=           0 AvBGPU=         0.0
 CoulSu-ThDecC:  IPartSL=   11    0 NPrtUSL=   12    1 IThBeg=    0 IThEnd=   11 CPU=   -1 GPU=   -1 NThAct=    6.
 CoulSu-ThDecC:  IPartSL=    6    0 NPrtUSL=   12    1 IThBeg=    0 IThEnd=   11 CPU=   -1 GPU=   -1 NThAct=    5.
 CoulSu-ThDecC:  IPartSL=   10    0 NPrtUSL=   12    1 IThBeg=    0 IThEnd=   11 CPU=   -1 GPU=   -1 NThAct=    4.
 CoulSu-ThDecC:  IPartSL=    3    0 NPrtUSL=   12    1 IThBeg=    0 IThEnd=   11 CPU=   -1 GPU=   -1 NThAct=    3.
 CoulSu-ThDecC:  IPartSL=    0    0 NPrtUSL=   12    1 IThBeg=    0 IThEnd=   11 CPU=   -1 GPU=   -1 NThAct=    2.
 CoulSu:  IPart=    1 IPartR=    1 CPU=   -1 GPU=   -1.
 Enter PrismC:  IPart=  1 JobTyp=20 DoJE=T Cont=T.
 PrismC:  IPart=     1 DynPar=F LinDyn=F Incr=           1 UseFst=F UseS4=T ISplat=2.
 PrismC was handed   357913145 working-precision words and     2 shell-pairs
[...]
 MO Ground to excited state density for IMat=    2 (alpha):
                 1             2 
      1   0.000000D+00  0.000000D+00
      2   0.140523D+01  0.000000D+00
 MO Ground to excited state density for IMat=    2 (beta):
                 1             2 
      1   0.000000D+00  0.000000D+00
      2   0.140523D+01  0.000000D+00
 Ground to excited state density for IMat=    2 (alpha):
                 1             2 
      1   0.423294D+00  0.935102D+00
      2  -0.935102D+00 -0.206574D+01
 Ground to excited state density for IMat=    2 (beta):
                 1             2 
      1   0.423294D+00  0.935102D+00
      2  -0.935102D+00 -0.206574D+01
 1st state is                       1
 2nd state is                       4
 MO Ground to excited state density for IMat=    3 (alpha):
                 1             2 
      1   0.111829D+00  0.000000D+00
      2   0.000000D+00 -0.111829D+00
 MO Ground to excited state density for IMat=    3 (beta):
                 1             2 
      1   0.111829D+00  0.000000D+00
      2   0.000000D+00 -0.111829D+00
 Ground to excited state density for IMat=    3 (alpha):
                 1             2 
      1   0.000000D+00  0.148832D+00
      2   0.148832D+00  0.000000D+00
 Ground to excited state density for IMat=    3 (beta):
                 1             2 
      1   0.000000D+00  0.148832D+00
      2   0.148832D+00  0.000000D+00
 1st state is                       3
 2nd state is                       2
 Alpha MO transition density between states    3    2:
                 1             2 
      1  -0.500000D+00  0.000000D+00
      2   0.000000D+00  0.500000D+00
 Beta  MO transition density between states    3    2:
                 1             2 
      1   0.500000D+00  0.000000D+00
      2   0.000000D+00 -0.500000D+00
 Alpha transition density between states    3    2:
                 1             2 
      1   0.000000D+00 -0.665445D+00
      2  -0.665445D+00  0.000000D+00
 Beta  transition density between states    3    2:
                 1             2 
      1   0.000000D+00  0.665445D+00
      2   0.665445D+00  0.000000D+00
 1st state is                       4
 2nd state is                       2
 Alpha MO transition density between states    4    2:
                 1             2 
      1   0.000000D+00  0.000000D+00
      2   0.159161D+00  0.000000D+00
 Beta  MO transition density between states    4    2:
                 1             2 
      1   0.000000D+00  0.000000D+00
      2  -0.159161D+00  0.000000D+00
 Alpha transition density between states    4    2:
                 1             2 
      1   0.479438D-01  0.105913D+00
      2  -0.105913D+00 -0.233973D+00
 Beta  transition density between states    4    2:
                 1             2 
      1  -0.479438D-01 -0.105913D+00
      2   0.105913D+00  0.233973D+00
 1st state is                       4
 2nd state is                       3
 Alpha MO transition density between states    4    3:
                 1             2 
      1   0.000000D+00  0.000000D+00
      2   0.159161D+00  0.000000D+00
 Beta  MO transition density between states    4    3:
                 1             2 
      1   0.000000D+00  0.000000D+00
      2   0.159161D+00  0.000000D+00
 Alpha transition density between states    4    3:
                 1             2 
      1   0.479438D-01  0.105913D+00
      2  -0.105913D+00 -0.233973D+00
 Beta  transition density between states    4    3:
                 1             2 
      1   0.479438D-01  0.105913D+00
      2  -0.105913D+00 -0.233973D+00
 ENTER FOP ... ITERATION NO.  3
          ************************************
          *                                  *
          *   TOTAL ENERGY=     0.48314266   *
          ************************************
 FINAL COEFFICIENT MATRIX
 ROW NO  1
     0.5488423    0.5488423
 ROW NO  2
     1.2124519   -1.2124519
 FINAL EIGENVECTOR
     0.1125439   -0.0000000   -0.0000000    0.9936468
 MCSCF converged.
 Leave Link  510 at Thu Oct 15 01:13:39 2020, MaxMem=  4294967296 cpu:              15.4 elap:               1.3
 (Enter /opt/gaussian/gdv-20180628-i14+/gdv/l601.exe)
 GetPMM: IRwPM=  824 LRwPM=    0 LPMAll=    2
 GetPCM: File not found, return IValue=0.
 Copying SCF densities to generalized density rwf, IOpCl= 0 IROHF=3.

 **********************************************************************

            Population analysis using the SCF Density.

 **********************************************************************

 Alpha  occ. eigenvalues --    0.00000
 Alpha virt. eigenvalues --    0.00000
     Molecular Orbital Coefficients:
                           1         2
                           O         V
     Eigenvalues --     0.00000   0.00000
   1 1   H  1S          0.54884   1.21245
   2 2   H  1S          0.54884  -1.21245
     Alpha Density Matrix:
                           1         2
   1 1   H  1S          0.31603
   2 2   H  1S          0.27879   0.31603
     Beta Density Matrix:
                           1         2
   1 1   H  1S          0.31603
   2 2   H  1S          0.27879   0.31603
    Full Mulliken population analysis:
                           1         2
   1 1   H  1S          0.63206
   2 2   H  1S          0.36794   0.63206
     Gross orbital populations:
                         Total     Alpha     Beta      Spin
   1 1   H  1S          1.00000   0.50000   0.50000  -0.00000
   2 2   H  1S          1.00000   0.50000   0.50000   0.00000
          Condensed to atoms (all electrons):
               1          2
     1  H    0.632064   0.367936
     2  H    0.367936   0.632064
          Atomic-Atomic Spin Densities.
               1          2
     1  H   -0.000000   0.000000
     2  H    0.000000   0.000000
 Mulliken charges and spin densities:
               1          2
     1  H   -0.000000  -0.000000
     2  H    0.000000   0.000000
 Sum of Mulliken charges =   0.00000   0.00000
 Mulliken charges and spin densities with hydrogens summed into heavy atoms:
               1          2
 DipInt: DoE/N= T F RetVal/Mat= T F Init=T NMatP=  1 IDeriv=0 Min/MaxMlt=  0  4
 Entering OneElI...
 OneElI was handed  4294967176 working-precision words.
 Multipole integrals L=0 to 4 MinM= 0 MaxM= 0.
 Requested accuracy = 0.1000D-12
 ShPair: Thresh= 1.00D-13 NBox=     0 BxSize= 0.00D+00 RnKept= 1.40D+00
         NSMCal=                    3 NSMKep=                   3
 PrmmSu-InSpLW:  IPartL=    0 NPrtUS=    1 NPrtUL=    1 DoSpLW=F IThBeg=    0 IThEnd=    0 NThAct=    1.
 PrSmSu:  IncTry=   512 NBBP=              3 NTPThr=   100 NPartT=    1 Incr=           1 LDynOK=F GPUOK=F.
 PrsmSu:  NPrtUS=   1 ThrOK=F IAlg=2 LenDen=           0 ISkipM=0 DoSpLW=F IThBeg=    0 IThEnd=    0.
 Prism:   IPart=     0 DynPar=F LinDyn=F Incr=           1.
 PRISM was handed  4294965851 working-precision words and     3 shell-pairs
 IPart=  0 NShTot=           3 NBatch=           1 AvBLen=         3.0
 PrsmSu-ThDecC:  IPartSL=    0    0 NPrtUSL=    1    1 IThBeg=    0 IThEnd=    0 CPU=   -1 GPU=   -1 NThAct=    1.
 PrSmSu:  NxtVal=              2.
 Electronic moments (au):
         -2.00000000         -0.00000000         -0.00000000          0.00000000
         -1.36803993         -1.36803993         -2.05667780         -0.00000000
         -0.00000000         -0.00000000         -0.00000000         -0.00000000
          0.00000000         -0.00000000         -0.00000000          0.00000000
         -0.00000000         -0.00000000          0.00000000         -0.00000000
         -4.03770285         -4.03770285         -6.96551553         -0.00000000
         -0.00000000         -0.00000000         -0.00000000         -0.00000000
         -0.00000000         -1.34590095         -1.78100972         -1.78100972
         -0.00000000         -0.00000000         -0.00000000
 Electronic spatial extent (au):  <R**2>=              4.7928
 DipInt: DoE/N= F T RetVal/Mat= T F Init=T NMatP=  1 IDeriv=0 Min/MaxMlt=  0  4
 Nuclear    moments (au):
          2.00000000          0.00000000          0.00000000          0.00000000
          0.00000000          0.00000000          0.97775755          0.00000000
          0.00000000          0.00000000          0.00000000          0.00000000
          0.00000000          0.00000000          0.00000000          0.00000000
          0.00000000          0.00000000          0.00000000          0.00000000
          0.00000000          0.00000000          0.47800491          0.00000000
          0.00000000          0.00000000          0.00000000          0.00000000
          0.00000000          0.00000000          0.00000000          0.00000000
          0.00000000          0.00000000          0.00000000
 Total      moments (au):
          0.00000000          0.00000000          0.00000000          0.00000000
         -1.36803993         -1.36803993         -1.07892025          0.00000000
          0.00000000          0.00000000          0.00000000          0.00000000
          0.00000000          0.00000000          0.00000000          0.00000000
          0.00000000          0.00000000          0.00000000          0.00000000
         -4.03770285         -4.03770285         -6.48751061          0.00000000
          0.00000000          0.00000000          0.00000000          0.00000000
          0.00000000         -1.34590095         -1.78100972         -1.78100972
          0.00000000          0.00000000          0.00000000
 Traceless Quadrup. (au):
         -0.09637323         -0.09637323          0.19274645          0.00000000
          0.00000000          0.00000000
 Charge=              0.0000 electrons
 Dipole moment (field-independent basis, Debye):
    X=              0.0000    Y=              0.0000    Z=              0.0000  Tot=              0.0000
 Quadrupole moment (field-independent basis, Debye-Ang):
   XX=             -1.8401   YY=             -1.8401   ZZ=             -1.4512
   XY=              0.0000   XZ=              0.0000   YZ=              0.0000
 Traceless Quadrupole moment (field-independent basis, Debye-Ang):
   XX=             -0.1296   YY=             -0.1296   ZZ=              0.2593
   XY=              0.0000   XZ=              0.0000   YZ=              0.0000
 Octapole moment (field-independent basis, Debye-Ang**2):
  XXX=              0.0000  YYY=              0.0000  ZZZ=              0.0000  XYY=              0.0000
  XXY=              0.0000  XXZ=              0.0000  XZZ=              0.0000  YZZ=              0.0000
  YYZ=              0.0000  XYZ=              0.0000
 Hexadecapole moment (field-independent basis, Debye-Ang**3):
 XXXX=             -1.5208 YYYY=             -1.5208 ZZZZ=             -2.4435 XXXY=              0.0000
 XXXZ=              0.0000 YYYX=              0.0000 YYYZ=              0.0000 ZZZX=              0.0000
 ZZZY=              0.0000 XXYY=             -0.5069 XXZZ=             -0.6708 YYZZ=             -0.6708
 XXYZ=              0.0000 YYXZ=              0.0000 ZZXY=              0.0000
 N-N= 7.151043390811D-01 E-N=-3.711934262545D+00  KE= 1.225029284120D+00
 Kinetic energy over alpha MOs:
                1             2 
      1  0.600644D+00
      2  0.000000D+00  0.153787D+01
 Orbital energies and kinetic energies (alpha):
                                 1                 2
   1         O                 0.000000          0.600644
   2         V                 0.000000          1.537872
 Total kinetic energy from orbitals= 1.201287175908D+00
                          Isotropic Fermi Contact Couplings
        Atom                 a.u.       MegaHertz       Gauss      10(-4) cm-1
     1  H(1)              -0.00000      -0.00000      -0.00000      -0.00000
     2  H(1)               0.00000       0.00000       0.00000       0.00000
 Entering OneElI...
 OneElI was handed  4294967128 working-precision words.
 Calculate electrostatic properties
    NBasis =     2  MinDer = 0  MaxDer = 0
    NGrid  =     2  NMatD  =   1
 Requested accuracy = 0.1000D-12
 ShPair: Thresh= 1.00D-13 NBox=     0 BxSize= 0.00D+00 RnKept= 1.40D+00
         NSMCal=                    3 NSMKep=                   1
 --------------------------------------------------------
       Center         ----  Spin Dipole Couplings  ----
                      3XX-RR        3YY-RR        3ZZ-RR
 --------------------------------------------------------
     1   Atom        0.000000      0.000000      0.000000
     2   Atom        0.000000      0.000000      0.000000
 --------------------------------------------------------
                        XY            XZ            YZ
 --------------------------------------------------------
     1   Atom        0.000000      0.000000      0.000000
     2   Atom        0.000000      0.000000      0.000000
 --------------------------------------------------------


 ---------------------------------------------------------------------------------
              Anisotropic Spin Dipole Couplings in Principal Axis System
 ---------------------------------------------------------------------------------

       Atom             a.u.   MegaHertz   Gauss  10(-4) cm-1        Axes

              Baa     0.0000     0.000     0.000     0.000  1.0000  0.0000  0.0000
     1 H(1)   Bbb     0.0000     0.000     0.000     0.000 -0.0000  1.0000  0.0000
              Bcc     0.0000     0.000     0.000     0.000  0.0000  0.0000  1.0000
 
              Baa     0.0000     0.000     0.000     0.000  1.0000  0.0000  0.0000
     2 H(1)   Bbb     0.0000     0.000     0.000     0.000 -0.0000  1.0000  0.0000
              Bcc     0.0000     0.000     0.000     0.000  0.0000  0.0000  1.0000
 

 ---------------------------------------------------------------------------------

 Entering OneElI...
 OneElI was handed  4294967128 working-precision words.
 Calculate electrostatic properties
    NBasis =     2  MinDer = 0  MaxDer = 0
    NGrid  =     2  NMatD  =   1
 Requested accuracy = 0.1000D-12
 ShPair: Thresh= 1.00D-13 NBox=     0 BxSize= 0.00D+00 RnKept= 1.40D+00
         NSMCal=                    3 NSMKep=                   3
 PrmmSu-InSpLW:  IPartL=    0 NPrtUS=   12 NPrtUL=    1 DoSpLW=F IThBeg=    0 IThEnd=   11 NThAct=   12.
 PrSmSu:  IncTry=   512 NBBP=              6 NTPThr=   100 NPartT=   12 Incr=           1 LDynOK=F GPUOK=F.
 PrsmSu:  NPrtUS=  12 ThrOK=T IAlg=2 LenDen=           0 ISkipM=0 DoSpLW=F IThBeg=    0 IThEnd=   11.
 Prism:   IPart=     0 DynPar=F LinDyn=F Incr=           1.
 PRISM was handed   357913091 working-precision words and     3 shell-pairs
 PRISM was handed   357913091 working-precision words and     3 shell-pairs
 PRISM was handed   357913091 working-precision words and     3 shell-pairs
 PRISM was handed   357913091 working-precision words and     3 shell-pairs
 PRISM was handed   357913091 working-precision words and     3 shell-pairs
 PRISM was handed   357913091 working-precision words and     3 shell-pairs
 PRISM was handed   357913091 working-precision words and     3 shell-pairs
 PRISM was handed   357913091 working-precision words and     3 shell-pairs
 PRISM was handed   357913091 working-precision words and     3 shell-pairs
 PRISM was handed   357913091 working-precision words and     3 shell-pairs
 PRISM was handed   357913091 working-precision words and     3 shell-pairs
 PRISM was handed   357913091 working-precision words and     3 shell-pairs
 IPart=  4 NShTot=           0 NBatch=           0 AvBLen=         0.0
 IPart=  8 NShTot=           0 NBatch=           0 AvBLen=         0.0
 PrsmSu-ThDecC:  IPartSL=    4    0 NPrtUSL=   12    1 IThBeg=    0 IThEnd=   11 CPU=   -1 GPU=   -1 NThAct=   12.
 PrsmSu-ThDecC:  IPartSL=    8    0 NPrtUSL=   12    1 IThBeg=    0 IThEnd=   11 CPU=   -1 GPU=   -1 NThAct=   11.
 IPart= 10 NShTot=           0 NBatch=           0 AvBLen=         0.0
 PrsmSu-ThDecC:  IPartSL=   10    0 NPrtUSL=   12    1 IThBeg=    0 IThEnd=   11 CPU=   -1 GPU=   -1 NThAct=   10.
 IPart=  2 NShTot=           2 NBatch=           1 AvBLen=         2.0
 PrsmSu-ThDecC:  IPartSL=    2    0 NPrtUSL=   12    1 IThBeg=    0 IThEnd=   11 CPU=   -1 GPU=   -1 NThAct=    9.
 IPart=  5 NShTot=           0 NBatch=           0 AvBLen=         0.0
 IPart= 11 NShTot=           0 NBatch=           0 AvBLen=         0.0
 PrsmSu-ThDecC:  IPartSL=    5    0 NPrtUSL=   12    1 IThBeg=    0 IThEnd=   11 CPU=   -1 GPU=   -1 NThAct=    8.
 PrsmSu-ThDecC:  IPartSL=   11    0 NPrtUSL=   12    1 IThBeg=    0 IThEnd=   11 CPU=   -1 GPU=   -1 NThAct=    7.
 IPart=  1 NShTot=           2 NBatch=           1 AvBLen=         2.0
 PrsmSu-ThDecC:  IPartSL=    1    0 NPrtUSL=   12    1 IThBeg=    0 IThEnd=   11 CPU=   -1 GPU=   -1 NThAct=    6.
 IPart=  7 NShTot=           0 NBatch=           0 AvBLen=         0.0
 PrsmSu-ThDecC:  IPartSL=    7    0 NPrtUSL=   12    1 IThBeg=    0 IThEnd=   11 CPU=   -1 GPU=   -1 NThAct=    5.
 IPart=  9 NShTot=           0 NBatch=           0 AvBLen=         0.0
 PrsmSu-ThDecC:  IPartSL=    9    0 NPrtUSL=   12    1 IThBeg=    0 IThEnd=   11 CPU=   -1 GPU=   -1 NThAct=    4.
 IPart=  3 NShTot=           0 NBatch=           0 AvBLen=         0.0
 PrsmSu-ThDecC:  IPartSL=    3    0 NPrtUSL=   12    1 IThBeg=    0 IThEnd=   11 CPU=   -1 GPU=   -1 NThAct=    3.
 IPart=  6 NShTot=           0 NBatch=           0 AvBLen=         0.0
 PrsmSu-ThDecC:  IPartSL=    6    0 NPrtUSL=   12    1 IThBeg=    0 IThEnd=   11 CPU=   -1 GPU=   -1 NThAct=    2.
 IPart=  0 NShTot=           2 NBatch=           1 AvBLen=         2.0
 PrsmSu-ThDecC:  IPartSL=    0    0 NPrtUSL=   12    1 IThBeg=    0 IThEnd=   11 CPU=   -1 GPU=   -1 NThAct=    1.
 PrSmSu:  NxtVal=             13.
 --------------------------------------------------------
       Center         ----      EFG at Nuclei      ----
                      3XX-RR        3YY-RR        3ZZ-RR
 --------------------------------------------------------
     1   Atom        0.288769      0.288769     -0.577539
     2   Atom        0.288769      0.288769     -0.577539
 --------------------------------------------------------
                        XY            XZ            YZ
 --------------------------------------------------------
     1   Atom        0.000000      0.000000      0.000000
     2   Atom        0.000000      0.000000      0.000000
 --------------------------------------------------------


 ---------------------------------------------------------------------------------
              Nuclear Quadrupole Coupling Constant in Principal Axis System
 ---------------------------------------------------------------------------------

       Atom             a.u.   MegaHertz   Gauss  10(-4) cm-1        Axes


 ---------------------------------------------------------------------------------

 No NMR shielding tensors so no spin-rotation constants.
 Leave Link  601 at Thu Oct 15 01:13:40 2020, MaxMem=  4294967296 cpu:               1.8 elap:               0.2
 (Enter /opt/gaussian/gdv-20180628-i14+/gdv/l9999.exe)

 Test job not archived.
 1\1\GINC-NODE13\SP\CASSCF\STO-3G\H2\KRANKA\15-Oct-2020\0\\#P CASSCF(2,
 2,fulldiag,NRoot=4,SaveGEDensities)/sto-3g scf(tight,maxcyc=100) nosym
 m scf(tight,maxcyc=1500,conventional) iop(3/33=6) extralinks(l316,l308
 ) noraff symm=noint iop(3/33=3) pop(full) iop(6/8=1,3/33=3,3/36=1,4/33
 =3,5/33=3,6/33=3,9/33=3,5/72=-3)\\CAS(2,2)SCF/STO-3G, S2 state single 
 point, pert. calc. (all density matrices printed)\\0,1\H,0,0.,0.,-0.37
 \H,0,0.,0.,0.37\\Version=ES64L-GDVRevI.14+\HF=0.4831427\RMSD=0.000e+00
 \Dipole=0.,0.,0.\Quadrupole=-0.0963732,-0.0963732,0.1927465,0.,0.,0.\P
 G=D*H [C*(H1.H1)]\\@


 DIATOMIC MOLECULES ARE PECULIAR BECAUSE THEY ONLY HAVE TWO ENDS,
 AND THESE ENDS ARE VERY CLOSE TOGETHER.
 KLAUS RUEDENBERG, REV.MOD.PHYS. PG 176, 32, (1960)
 Job cpu time:       0 days  0 hours  1 minutes  3.0 seconds.
 Elapsed time:       0 days  0 hours  0 minutes  5.6 seconds.
 File lengths (MBytes):  RWF=      6 Int=      1 D2E=      0 Chk=      2 Scr=      1
 Normal termination of Gaussian DV at Thu Oct 15 01:13:40 2020.
